                         Program Version 6.0.1  -  RELEASE   -
|  1> ! B3LYP def2-SVP TightSCF Freq Engrad
|  2> * xyz 0 1
|  3>    N         -0.0000863249         -0.0010161408          0.0826490011
|  4>    H          0.4991780401         -0.0010548007         -0.1346233819
|  5>    H         -0.2636267112          0.4553848704         -0.1460817108
|  6>    H         -0.2313364095         -0.4016689667         -0.1194863889
|  7> *
|  8> %elprop
|  9>  Polar 1
| 10> end
| 11>
| 12>                          ****END OF INPUT****

CARTESIAN COORDINATES (ANGSTROEM)
---------------------------------
  N     -0.000086   -0.001016    0.082649
  H      0.499178   -0.001055   -0.134623
  H     -0.263627    0.455385   -0.146082
  H     -0.231336   -0.401669   -0.119486

 Total Charge           Charge          ....    0
 Multiplicity           Mult            ....    1
 Number of Electrons    NEL             ....   10
 Basis Dimension        Dim             ....   29

ORBITAL ENERGIES
----------------

  NO   OCC          E(Eh)            E(eV)
   0   2.0000     -14.249821      -387.7573
   1   2.0000      -1.106328       -30.1047
   2   2.0000      -0.637137       -17.3374
   3   2.0000      -0.626337       -17.0435
   4   2.0000      -0.284976        -7.7546
   5   0.0000       0.094169         2.5625
   6   0.0000       0.180821         4.9204
   7   0.0000       0.181286         4.9330
   8   0.0000       0.643669        17.5151
   9   0.0000       0.715987        19.4830

MULLIKEN ATOMIC CHARGES
-----------------------
   0 N :    0.950454
   1 H :   -0.311341
   2 H :   -0.256224
   3 H :   -0.382890
Sum of atomic charges:    0.0000000

LOEWDIN ATOMIC CHARGES
----------------------
   0 N :    0.416744
   1 H :   -0.132047
   2 H :   -0.089201
   3 H :   -0.195496

  Mayer bond orders larger than 0.100000
B(  0-N ,  1-H ) :   0.3247 B(  0-N ,  2-H ) :   0.4058 B(  0-N ,  3-H ) :   0.1958
B(  1-H ,  2-H ) :   0.2275 B(  1-H ,  3-H ) :   0.2739 B(  2-H ,  3-H ) :   0.2529

FINAL SINGLE POINT ENERGY       -54.528899250601

DIPOLE MOMENT
-------------

Method             : SCF
Type of density    : Electron Density
Multiplicity       :   1
Irrep              :   0
Energy             :   -54.5288992506009222 Eh
Relativity type    :
Basis              : AO
                                X                 Y                 Z
Electronic contribution:     -0.002247504      -0.030548744      -0.229511235
Nuclear contribution   :      0.003450577       0.042967043      -0.499889274
                        -----------------------------------------
Total Dipole Moment    :      0.001203073       0.012418299      -0.729400509
                        -----------------------------------------
Magnitude (a.u.)       :      0.729507207
Magnitude (Debye)      :      1.854259959

VIBRATIONAL FREQUENCIES
-----------------------

Scaling factor for frequencies =  1.000000000  (already applied!)

     0:       0.00 cm**-1
     1:       0.00 cm**-1
     2:       0.00 cm**-1
     3:       0.00 cm**-1
     4:       0.00 cm**-1
     5:       0.00 cm**-1
     6:   -8438.31 cm**-1  ***imaginary mode***
     7:   -8062.75 cm**-1  ***imaginary mode***
     8:   -6793.12 cm**-1  ***imaginary mode***
     9:   13916.49 cm**-1
    10:   15480.45 cm**-1
    11:   17829.27 cm**-1

IR SPECTRUM
-----------

 Mode   freq       eps      Int      T**2         TX        TY        TZ
       cm**-1   L/(mol*cm) km/mol    a.u.
----------------------------------------------------------------------------
  9:  13916.49   0.003274   16.55  0.000073  (-0.003463  0.007347  0.002729)
 10:  15480.45   0.004656   23.53  0.000094  ( 0.009176 -0.001928  0.002437)
 11:  17829.27   0.005607   28.34  0.000098  ( 0.005062  0.008159 -0.002437)

--------------------------
THERMOCHEMISTRY AT 298.15K
--------------------------

Temperature         ...   298.15 K
Pressure            ...     1.00 atm
Total Mass          ...    17.03 AMU
Quasi RRHO          ...     True
Cut-Off Frequency   ...     1.00 cm^-1

Throughout the following assumptions are being made:
  (1) The electronic state is orbitally nondegenerate
  (2) There are no thermally accessible electronically excited states
  (3) Hindered rotations indicated by low frequency modes are not
      treated as such but are treated as vibrations and this may
      cause some error
  (4) All equations used are the standard statistical mechanics
      equations for an ideal gas
  (5) All vibrations are strictly harmonic

freq.   13916.49  E(vib)   ...       0.00
freq.   15480.45  E(vib)   ...       0.00
freq.   17829.27  E(vib)   ...       0.00

------------
INNER ENERGY
------------

The inner energy is: U= E(el) + E(ZPE) + E(vib) + E(rot) + E(trans)
    E(el)   - is the total energy from the electronic structure calculation
              = E(kin-el) + E(nuc-el) + E(el-el) + E(nuc-nuc)
    E(ZPE)  - the the zero temperature vibrational energy from the frequency calculation
    E(vib)  - the the finite temperature correction to E(ZPE) due to population
              of excited vibrational states
    E(rot)  - is the rotational thermal energy
    E(trans)- is the translational thermal energy

Summary of contributions to the inner energy U:
Electronic energy                ...    -54.52889925 Eh
Zero point energy                ...      0.10758921 Eh      67.51 kcal/mol
Thermal vibrational correction   ...      0.00000000 Eh       0.00 kcal/mol
Thermal rotational correction    ...      0.00141627 Eh       0.89 kcal/mol
Thermal translational correction ...      0.00141627 Eh       0.89 kcal/mol
-----------------------------------------------------------------------
Total thermal energy                    -54.41847750 Eh

Summary of corrections to the electronic energy:
(perhaps to be used in another calculation)
Total thermal correction                  0.00283254 Eh       1.78 kcal/mol
Non-thermal (ZPE) correction              0.10758921 Eh      67.51 kcal/mol
-----------------------------------------------------------------------
Total correction                          0.11042175 Eh      69.29 kcal/mol

--------
ENTHALPY
--------

The enthalpy is H = U + kB*T
                kB is Boltzmann's constant
Total thermal energy              ...    -54.41847750 Eh
Thermal Enthalpy correction       ...      0.00094421 Eh       0.59 kcal/mol
-----------------------------------------------------------------------
Total Enthalpy                    ...    -54.41753329 Eh

Note: Only C1 symmetry has been detected, increase convergence thresholds
      if your molecule has a higher symmetry. Symmetry factor of 1.0 is
      used for the rotational entropy correction.

Note: Rotational entropy computed according to Herzberg
Infrared and Raman Spectra, Chapter V,1, Van Nostrand Reinhold, 1945
Point Group:  C1, Symmetry Number:   1
Rotational constants in cm-1:    36.550659    32.631930    22.518910

Vibrational entropy computed according to the QRRHO of S. Grimme
Chem.Eur.J. 2012 18 9955 using a reference frequency of 100.0 cm-1

-------
ENTROPY
-------

The entropy contributions are T*S = T*(S(el)+S(vib)+S(rot)+S(trans))
     S(el)   - electronic entropy
     S(vib)  - vibrational entropy
     S(rot)  - rotational entropy
     S(trans)- translational entropy
The entropies will be listed as multiplied by the temperature to get
units of energy

Electronic entropy                ...      0.00000000 Eh      0.00 kcal/mol
Vibrational entropy               ...     -0.00000000 Eh     -0.00 kcal/mol
Rotational entropy                ...      0.00469627 Eh      2.95 kcal/mol
Translational entropy             ...      0.01636425 Eh     10.27 kcal/mol
-----------------------------------------------------------------------
Final entropy term                ...      0.02106052 Eh     13.22 kcal/mol

In case the symmetry of your molecule has not been determined correctly
or in case you have a reason to use a different symmetry number we print
out the resulting rotational entropy values for sn=1,12:

 non-linear molecules -----------------------------------
|  sn= 1 | S(rot)=       0.00469627 Eh      2.95 kcal/mol|
|  sn= 2 | S(rot)=       0.00404181 Eh      2.54 kcal/mol|
|  sn= 3 | S(rot)=       0.00365898 Eh      2.30 kcal/mol|
|  sn= 4 | S(rot)=       0.00338736 Eh      2.13 kcal/mol|
|  sn= 5 | S(rot)=       0.00317667 Eh      1.99 kcal/mol|
|  sn= 6 | S(rot)=       0.00300452 Eh      1.89 kcal/mol|
|  sn= 7 | S(rot)=       0.00285898 Eh      1.79 kcal/mol|
|  sn= 8 | S(rot)=       0.00273290 Eh      1.71 kcal/mol|
|  sn= 9 | S(rot)=       0.00262169 Eh      1.65 kcal/mol|
|  sn=10 | S(rot)=       0.00252221 Eh      1.58 kcal/mol|
|  sn=11 | S(rot)=       0.00243222 Eh      1.53 kcal/mol|
|  sn=12 | S(rot)=       0.00235007 Eh      1.47 kcal/mol|
 linear molecules ---------------------------------------
|  Dinfh | S(rot)=       0.00238529 Eh      1.50 kcal/mol|
|  Cinfv | S(rot)=       0.00303975 Eh      1.91 kcal/mol|
 --------------------------------------------------------

-------------------
GIBBS FREE ENERGY
-------------------

The Gibbs free energy is G = H - T*S

Total enthalpy                    ...    -54.41753329 Eh
Total entropy correction          ...     -0.02106052 Eh    -13.22 kcal/mol
-----------------------------------------------------------------------
Final Gibbs free energy         ...    -54.43859381 Eh

For completeness - the Gibbs free energy minus the electronic energy
G-E(el)                           ...      0.09030544 Eh     56.67 kcal/mol

                             ****ORCA TERMINATED NORMALLY****
TOTAL RUN TIME: 0 days 0 hours 0 minutes 6 seconds 649 msec
