                         Program Version 6.0.1  -  RELEASE   -
|  1> ! B3LYP def2-SVP TightSCF Freq Engrad
|  2> * xyz 0 1
|  3>    O          0.0000000198         -0.0088082649         -0.0000000004
|  4>    H          0.3697749541          0.3505233509          0.0000000913
|  5>    H         -0.3697756482          0.3505227786         -0.0000001430
|  6> *
|  7> %elprop
|  8>  Polar 1
|  9> end
| 10>
| 11>                          ****END OF INPUT****

CARTESIAN COORDINATES (ANGSTROEM)
---------------------------------
  O      0.000000   -0.008808   -0.000000
  H      0.369775    0.350523    0.000000
  H     -0.369776    0.350523   -0.000000

 Total Charge           Charge          ....    0
 Multiplicity           Mult            ....    1
 Number of Electrons    NEL             ....   10
 Basis Dimension        Dim             ....   24

ORBITAL ENERGIES
----------------

  NO   OCC          E(Eh)            E(eV)
   0   2.0000     -19.092466      -519.5324
   1   2.0000      -1.322040       -35.9745
   2   2.0000      -0.697025       -18.9670
   3   2.0000      -0.438608       -11.9351
   4   2.0000      -0.349757        -9.5174
   5   0.0000       0.098193         2.6720
   6   0.0000       0.184222         5.0129
   7   0.0000       0.767391        20.8818
   8   0.0000       0.813348        22.1323
   9   0.0000       0.868720        23.6391

MULLIKEN ATOMIC CHARGES
-----------------------
   0 O :    0.336483
   1 H :   -0.168242
   2 H :   -0.168242
Sum of atomic charges:    0.0000000

LOEWDIN ATOMIC CHARGES
----------------------
   0 O :    0.542665
   1 H :   -0.271333
   2 H :   -0.271332

  Mayer bond orders larger than 0.100000
B(  0-O ,  1-H ) :   0.9528 B(  0-O ,  2-H ) :   0.9528 B(  1-H ,  2-H ) :   0.1262

FINAL SINGLE POINT ENERGY       -74.901696107371

DIPOLE MOMENT
-------------

Method             : SCF
Type of density    : Electron Density
Multiplicity       :   1
Irrep              :   0
Energy             :   -74.9016961073706682 Eh
Relativity type    :
Basis              : AO
                                X                 Y                 Z
Electronic contribution:     -0.000000056       0.117088844      -0.000000008
Nuclear contribution   :     -0.000000611       0.598186509      -0.000000042
                        -----------------------------------------
Total Dipole Moment    :     -0.000000667       0.715275352      -0.000000051
                        -----------------------------------------
Magnitude (a.u.)       :      0.715275352
Magnitude (Debye)      :      1.818085460

VIBRATIONAL FREQUENCIES
-----------------------

Scaling factor for frequencies =  1.000000000  (already applied!)

     0:       0.00 cm**-1
     1:       0.00 cm**-1
     2:       0.00 cm**-1
     3:       0.00 cm**-1
     4:       0.00 cm**-1
     5:       0.00 cm**-1
     6:   -8063.56 cm**-1  ***imaginary mode***
     7:   17772.58 cm**-1
     8:   17954.06 cm**-1

IR SPECTRUM
-----------

 Mode   freq       eps      Int      T**2         TX        TY        TZ
       cm**-1   L/(mol*cm) km/mol    a.u.
----------------------------------------------------------------------------
  7:  17772.58   0.000577    2.92  0.000010  (-0.000000  0.003184 -0.000000)
  8:  17954.06   0.007504   37.92  0.000130  (-0.011420 -0.000000 -0.000000)

--------------------------
THERMOCHEMISTRY AT 298.15K
--------------------------

Temperature         ...   298.15 K
Pressure            ...     1.00 atm
Total Mass          ...    18.02 AMU
Quasi RRHO          ...     True
Cut-Off Frequency   ...     1.00 cm^-1

Throughout the following assumptions are being made:
  (1) The electronic state is orbitally nondegenerate
  (2) There are no thermally accessible electronically excited states
  (3) Hindered rotations indicated by low frequency modes are not
      treated as such but are treated as vibrations and this may
      cause some error
  (4) All equations used are the standard statistical mechanics
      equations for an ideal gas
  (5) All vibrations are strictly harmonic

freq.   17772.58  E(vib)   ...       0.00
freq.   17954.06  E(vib)   ...       0.00

------------
INNER ENERGY
------------

The inner energy is: U= E(el) + E(ZPE) + E(vib) + E(rot) + E(trans)
    E(el)   - is the total energy from the electronic structure calculation
              = E(kin-el) + E(nuc-el) + E(el-el) + E(nuc-nuc)
    E(ZPE)  - the the zero temperature vibrational energy from the frequency calculation
    E(vib)  - the the finite temperature correction to E(ZPE) due to population
              of excited vibrational states
    E(rot)  - is the rotational thermal energy
    E(trans)- is the translational thermal energy

Summary of contributions to the inner energy U:
Electronic energy                ...    -74.90169611 Eh
Zero point energy                ...      0.08139128 Eh      51.07 kcal/mol
Thermal vibrational correction   ...      0.00000000 Eh       0.00 kcal/mol
Thermal rotational correction    ...      0.00141627 Eh       0.89 kcal/mol
Thermal translational correction ...      0.00141627 Eh       0.89 kcal/mol
-----------------------------------------------------------------------
Total thermal energy                    -74.81747228 Eh

Summary of corrections to the electronic energy:
(perhaps to be used in another calculation)
Total thermal correction                  0.00283254 Eh       1.78 kcal/mol
Non-thermal (ZPE) correction              0.08139128 Eh      51.07 kcal/mol
-----------------------------------------------------------------------
Total correction                          0.08422382 Eh      52.85 kcal/mol

--------
ENTHALPY
--------

The enthalpy is H = U + kB*T
                kB is Boltzmann's constant
Total thermal energy              ...    -74.81747228 Eh
Thermal Enthalpy correction       ...      0.00094421 Eh       0.59 kcal/mol
-----------------------------------------------------------------------
Total Enthalpy                    ...    -74.81652808 Eh

Note: Rotational entropy computed according to Herzberg
Infrared and Raman Spectra, Chapter V,1, Van Nostrand Reinhold, 1945
Point Group:  C2v, Symmetry Number:   2
Rotational constants in cm-1:    72.921842    61.154803    33.260982

Vibrational entropy computed according to the QRRHO of S. Grimme
Chem.Eur.J. 2012 18 9955 using a reference frequency of 100.0 cm-1

-------
ENTROPY
-------

The entropy contributions are T*S = T*(S(el)+S(vib)+S(rot)+S(trans))
     S(el)   - electronic entropy
     S(vib)  - vibrational entropy
     S(rot)  - rotational entropy
     S(trans)- translational entropy
The entropies will be listed as multiplied by the temperature to get
units of energy

Electronic entropy                ...      0.00000000 Eh      0.00 kcal/mol
Vibrational entropy               ...     -0.00000000 Eh     -0.00 kcal/mol
Rotational entropy                ...      0.00323509 Eh      2.03 kcal/mol
Translational entropy             ...      0.01644380 Eh     10.32 kcal/mol
-----------------------------------------------------------------------
Final entropy term                ...      0.01967889 Eh     12.35 kcal/mol

In case the symmetry of your molecule has not been determined correctly
or in case you have a reason to use a different symmetry number we print
out the resulting rotational entropy values for sn=1,12:

 non-linear molecules -----------------------------------
|  sn= 1 | S(rot)=       0.00388954 Eh      2.44 kcal/mol|
|  sn= 2 | S(rot)=       0.00323509 Eh      2.03 kcal/mol|
|  sn= 3 | S(rot)=       0.00285225 Eh      1.79 kcal/mol|
|  sn= 4 | S(rot)=       0.00258063 Eh      1.62 kcal/mol|
|  sn= 5 | S(rot)=       0.00236994 Eh      1.49 kcal/mol|
|  sn= 6 | S(rot)=       0.00219780 Eh      1.38 kcal/mol|
|  sn= 7 | S(rot)=       0.00205225 Eh      1.29 kcal/mol|
|  sn= 8 | S(rot)=       0.00192617 Eh      1.21 kcal/mol|
|  sn= 9 | S(rot)=       0.00181497 Eh      1.14 kcal/mol|
|  sn=10 | S(rot)=       0.00171549 Eh      1.08 kcal/mol|
|  sn=11 | S(rot)=       0.00162550 Eh      1.02 kcal/mol|
|  sn=12 | S(rot)=       0.00154334 Eh      0.97 kcal/mol|
 linear molecules ---------------------------------------
|  Dinfh | S(rot)=       0.00201703 Eh      1.27 kcal/mol|
|  Cinfv | S(rot)=       0.00267149 Eh      1.68 kcal/mol|
 --------------------------------------------------------

-------------------
GIBBS FREE ENERGY
-------------------

The Gibbs free energy is G = H - T*S

Total enthalpy                    ...    -74.81652808 Eh
Total entropy correction          ...     -0.01967889 Eh    -12.35 kcal/mol
-----------------------------------------------------------------------
Final Gibbs free energy         ...    -74.83620696 Eh

For completeness - the Gibbs free energy minus the electronic energy
G-E(el)                           ...      0.06548914 Eh     41.09 kcal/mol

                             ****ORCA TERMINATED NORMALLY****
TOTAL RUN TIME: 0 days 0 hours 0 minutes 4 seconds 333 msec
