                         Program Version 6.0.1  -  RELEASE   -
|  1> ! B3LYP def2-SVP TightSCF Freq Engrad
|  2> * xyz 0 1
|  3>    N         -0.0000007861         -0.0000001861          0.0853545465
|  4>    H          0.4766291366          0.0000398438         -0.1802341953
|  5>    H         -0.2383293140          0.4127262026         -0.1803716226
|  6>    H         -0.2382917111         -0.4127597158         -0.1803639792
|  7> *
|  8> %elprop
|  9>  Polar 1
| 10> end
| 11>
| 12>                          ****END OF INPUT****

CARTESIAN COORDINATES (ANGSTROEM)
---------------------------------
  N     -0.000001   -0.000000    0.085355
  H      0.476629    0.000040   -0.180234
  H     -0.238329    0.412726   -0.180372
  H     -0.238292   -0.412760   -0.180364

 Total Charge           Charge          ....    0
 Multiplicity           Mult            ....    1
 Number of Electrons    NEL             ....   10
 Basis Dimension        Dim             ....   29

ORBITAL ENERGIES
----------------

  NO   OCC          E(Eh)            E(eV)
   0   2.0000     -14.242904      -387.5691
   1   2.0000      -1.148125       -31.2421
   2   2.0000      -0.611507       -16.6400
   3   2.0000      -0.611434       -16.6380
   4   2.0000      -0.295758        -8.0480
   5   0.0000       0.087354         2.3770
   6   0.0000       0.181917         4.9502
   7   0.0000       0.181934         4.9507
   8   0.0000       0.637595        17.3498
   9   0.0000       0.706796        19.2329

MULLIKEN ATOMIC CHARGES
-----------------------
   0 N :    0.779974
   1 H :   -0.260010
   2 H :   -0.259980
   3 H :   -0.259984
Sum of atomic charges:   -0.0000000

LOEWDIN ATOMIC CHARGES
----------------------
   0 N :    0.396702
   1 H :   -0.132267
   2 H :   -0.132221
   3 H :   -0.132214

  Mayer bond orders larger than 0.100000
B(  0-N ,  1-H ) :   0.4050 B(  0-N ,  2-H ) :   0.4050 B(  0-N ,  3-H ) :   0.4050
B(  1-H ,  2-H ) :   0.2113 B(  1-H ,  3-H ) :   0.2113 B(  2-H ,  3-H ) :   0.2114

FINAL SINGLE POINT ENERGY       -54.609955239399

DIPOLE MOMENT
-------------

Method             : SCF
Type of density    : Electron Density
Multiplicity       :   1
Irrep              :   0
Energy             :   -54.6099552393991772 Eh
Relativity type    :
Basis              : AO
                                X                 Y                 Z
Electronic contribution:      0.000095499      -0.000004235      -0.227952196
Nuclear contribution   :      0.000008075       0.000005313      -0.614727370
                        -----------------------------------------
Total Dipole Moment    :      0.000103574       0.000001079      -0.842679566
                        -----------------------------------------
Magnitude (a.u.)       :      0.842679572
Magnitude (Debye)      :      2.141921251

VIBRATIONAL FREQUENCIES
-----------------------

Scaling factor for frequencies =  1.000000000  (already applied!)

     0:       0.00 cm**-1
     1:       0.00 cm**-1
     2:       0.00 cm**-1
     3:       0.00 cm**-1
     4:       0.00 cm**-1
     5:       0.00 cm**-1
     6:   -7565.52 cm**-1  ***imaginary mode***
     7:   -6953.63 cm**-1  ***imaginary mode***
     8:   -6951.16 cm**-1  ***imaginary mode***
     9:   15054.00 cm**-1
    10:   15590.05 cm**-1
    11:   15591.48 cm**-1

IR SPECTRUM
-----------

 Mode   freq       eps      Int      T**2         TX        TY        TZ
       cm**-1   L/(mol*cm) km/mol    a.u.
----------------------------------------------------------------------------
  9:  15054.00   0.001153    5.83  0.000024  (-0.000019 -0.000002  0.004888)
 10:  15590.05   0.005832   29.47  0.000117  (-0.000446 -0.010796 -0.000002)
 11:  15591.48   0.005867   29.65  0.000117  (-0.010828  0.000444 -0.000015)

--------------------------
THERMOCHEMISTRY AT 298.15K
--------------------------

Temperature         ...   298.15 K
Pressure            ...     1.00 atm
Total Mass          ...    17.03 AMU
Quasi RRHO          ...     True
Cut-Off Frequency   ...     1.00 cm^-1

Throughout the following assumptions are being made:
  (1) The electronic state is orbitally nondegenerate
  (2) There are no thermally accessible electronically excited states
  (3) Hindered rotations indicated by low frequency modes are not
      treated as such but are treated as vibrations and this may
      cause some error
  (4) All equations used are the standard statistical mechanics
      equations for an ideal gas
  (5) All vibrations are strictly harmonic

freq.   15054.00  E(vib)   ...       0.00
freq.   15590.05  E(vib)   ...       0.00
freq.   15591.48  E(vib)   ...       0.00

------------
INNER ENERGY
------------

The inner energy is: U= E(el) + E(ZPE) + E(vib) + E(rot) + E(trans)
    E(el)   - is the total energy from the electronic structure calculation
              = E(kin-el) + E(nuc-el) + E(el-el) + E(nuc-nuc)
    E(ZPE)  - the the zero temperature vibrational energy from the frequency calculation
    E(vib)  - the the finite temperature correction to E(ZPE) due to population
              of excited vibrational states
    E(rot)  - is the rotational thermal energy
    E(trans)- is the translational thermal energy

Summary of contributions to the inner energy U:
Electronic energy                ...    -54.60995524 Eh
Zero point energy                ...      0.10533229 Eh      66.10 kcal/mol
Thermal vibrational correction   ...      0.00000000 Eh       0.00 kcal/mol
Thermal rotational correction    ...      0.00141627 Eh       0.89 kcal/mol
Thermal translational correction ...      0.00141627 Eh       0.89 kcal/mol
-----------------------------------------------------------------------
Total thermal energy                    -54.50179041 Eh

Summary of corrections to the electronic energy:
(perhaps to be used in another calculation)
Total thermal correction                  0.00283254 Eh       1.78 kcal/mol
Non-thermal (ZPE) correction              0.10533229 Eh      66.10 kcal/mol
-----------------------------------------------------------------------
Total correction                          0.10816483 Eh      67.87 kcal/mol

--------
ENTHALPY
--------

The enthalpy is H = U + kB*T
                kB is Boltzmann's constant
Total thermal energy              ...    -54.50179041 Eh
Thermal Enthalpy correction       ...      0.00094421 Eh       0.59 kcal/mol
-----------------------------------------------------------------------
Total Enthalpy                    ...    -54.50084620 Eh

Note: Rotational entropy computed according to Herzberg
Infrared and Raman Spectra, Chapter V,1, Van Nostrand Reinhold, 1945
Point Group:  C3v, Symmetry Number:   3
Rotational constants in cm-1:    32.481947    32.478725    24.540756

Vibrational entropy computed according to the QRRHO of S. Grimme
Chem.Eur.J. 2012 18 9955 using a reference frequency of 100.0 cm-1

-------
ENTROPY
-------

The entropy contributions are T*S = T*(S(el)+S(vib)+S(rot)+S(trans))
     S(el)   - electronic entropy
     S(vib)  - vibrational entropy
     S(rot)  - rotational entropy
     S(trans)- translational entropy
The entropies will be listed as multiplied by the temperature to get
units of energy

Electronic entropy                ...      0.00000000 Eh      0.00 kcal/mol
Vibrational entropy               ...     -0.00000000 Eh     -0.00 kcal/mol
Rotational entropy                ...      0.00367632 Eh      2.31 kcal/mol
Translational entropy             ...      0.01636425 Eh     10.27 kcal/mol
-----------------------------------------------------------------------
Final entropy term                ...      0.02004058 Eh     12.58 kcal/mol

In case the symmetry of your molecule has not been determined correctly
or in case you have a reason to use a different symmetry number we print
out the resulting rotational entropy values for sn=1,12:

 non-linear molecules -----------------------------------
|  sn= 1 | S(rot)=       0.00471361 Eh      2.96 kcal/mol|
|  sn= 2 | S(rot)=       0.00405916 Eh      2.55 kcal/mol|
|  sn= 3 | S(rot)=       0.00367632 Eh      2.31 kcal/mol|
|  sn= 4 | S(rot)=       0.00340470 Eh      2.14 kcal/mol|
|  sn= 5 | S(rot)=       0.00319401 Eh      2.00 kcal/mol|
|  sn= 6 | S(rot)=       0.00302187 Eh      1.90 kcal/mol|
|  sn= 7 | S(rot)=       0.00287632 Eh      1.80 kcal/mol|
|  sn= 8 | S(rot)=       0.00275024 Eh      1.73 kcal/mol|
|  sn= 9 | S(rot)=       0.00263904 Eh      1.66 kcal/mol|
|  sn=10 | S(rot)=       0.00253956 Eh      1.59 kcal/mol|
|  sn=11 | S(rot)=       0.00244957 Eh      1.54 kcal/mol|
|  sn=12 | S(rot)=       0.00236741 Eh      1.49 kcal/mol|
 linear molecules ---------------------------------------
|  Dinfh | S(rot)=       0.00230411 Eh      1.45 kcal/mol|
|  Cinfv | S(rot)=       0.00295857 Eh      1.86 kcal/mol|
 --------------------------------------------------------

-------------------
GIBBS FREE ENERGY
-------------------

The Gibbs free energy is G = H - T*S

Total enthalpy                    ...    -54.50084620 Eh
Total entropy correction          ...     -0.02004058 Eh    -12.58 kcal/mol
-----------------------------------------------------------------------
Final Gibbs free energy         ...    -54.52088678 Eh

For completeness - the Gibbs free energy minus the electronic energy
G-E(el)                           ...      0.08906846 Eh     55.89 kcal/mol

                             ****ORCA TERMINATED NORMALLY****
TOTAL RUN TIME: 0 days 0 hours 0 minutes 6 seconds 738 msec
