                         Program Version 6.0.1  -  RELEASE   -
|  1> ! B3LYP def2-SVP TightSCF Freq Engrad
|  2> * xyz 0 1
|  3>    O         -0.0000000420         -0.0081431894         -0.0000000001
|  4>    H          0.4279913875          0.3295191340          0.0000002005
|  5>    H         -0.4279886382          0.3295169919         -0.0000001695
|  6> *
|  7> %elprop
|  8>  Polar 1
|  9> end
| 10>
| 11>                          ****END OF INPUT****

CARTESIAN COORDINATES (ANGSTROEM)
---------------------------------
  O     -0.000000   -0.008143   -0.000000
  H      0.427991    0.329519    0.000000
  H     -0.427989    0.329517   -0.000000

 Total Charge           Charge          ....    0
 Multiplicity           Mult            ....    1
 Number of Electrons    NEL             ....   10
 Basis Dimension        Dim             ....   24

ORBITAL ENERGIES
----------------

  NO   OCC          E(Eh)            E(eV)
   0   2.0000     -19.079133      -519.1696
   1   2.0000      -1.256724       -34.1972
   2   2.0000      -0.726349       -19.7650
   3   2.0000      -0.414075       -11.2676
   4   2.0000      -0.341797        -9.3008
   5   0.0000       0.101684         2.7670
   6   0.0000       0.180360         4.9078
   7   0.0000       0.792958        21.5775
   8   0.0000       0.825753        22.4699
   9   0.0000       0.887284        24.1442

MULLIKEN ATOMIC CHARGES
-----------------------
   0 O :    0.325385
   1 H :   -0.162689
   2 H :   -0.162695
Sum of atomic charges:   -0.0000000

LOEWDIN ATOMIC CHARGES
----------------------
   0 O :    0.487157
   1 H :   -0.243575
   2 H :   -0.243582

  Mayer bond orders larger than 0.100000
B(  0-O ,  1-H ) :   1.0133 B(  0-O ,  2-H ) :   1.0133 B(  1-H ,  2-H ) :   0.1188

FINAL SINGLE POINT ENERGY       -75.218671090909

DIPOLE MOMENT
-------------

Method             : SCF
Type of density    : Electron Density
Multiplicity       :   1
Irrep              :   0
Energy             :   -75.2186710909089413 Eh
Relativity type    :
Basis              : AO
                                X                 Y                 Z
Electronic contribution:     -0.000001319       0.109109418       0.000000003
Nuclear contribution   :      0.000002358       0.562111870       0.000000026
                        -----------------------------------------
Total Dipole Moment    :      0.000001040       0.671221288       0.000000029
                        -----------------------------------------
Magnitude (a.u.)       :      0.671221288
Magnitude (Debye)      :      1.706108929

VIBRATIONAL FREQUENCIES
-----------------------

Scaling factor for frequencies =  1.000000000  (already applied!)

     0:       0.00 cm**-1
     1:       0.00 cm**-1
     2:       0.00 cm**-1
     3:       0.00 cm**-1
     4:       0.00 cm**-1
     5:       0.00 cm**-1
     6:   -7346.14 cm**-1  ***imaginary mode***
     7:   15905.51 cm**-1
     8:   16254.15 cm**-1

IR SPECTRUM
-----------

 Mode   freq       eps      Int      T**2         TX        TY        TZ
       cm**-1   L/(mol*cm) km/mol    a.u.
----------------------------------------------------------------------------
  7:  15905.51   0.000735    3.72  0.000014  ( 0.000004  0.003798  0.000000)
  8:  16254.15   0.011403   57.63  0.000219  (-0.014796  0.000001 -0.000000)

--------------------------
THERMOCHEMISTRY AT 298.15K
--------------------------

Temperature         ...   298.15 K
Pressure            ...     1.00 atm
Total Mass          ...    18.02 AMU
Quasi RRHO          ...     True
Cut-Off Frequency   ...     1.00 cm^-1

Throughout the following assumptions are being made:
  (1) The electronic state is orbitally nondegenerate
  (2) There are no thermally accessible electronically excited states
  (3) Hindered rotations indicated by low frequency modes are not
      treated as such but are treated as vibrations and this may
      cause some error
  (4) All equations used are the standard statistical mechanics
      equations for an ideal gas
  (5) All vibrations are strictly harmonic

freq.   15905.51  E(vib)   ...       0.00
freq.   16254.15  E(vib)   ...       0.00

------------
INNER ENERGY
------------

The inner energy is: U= E(el) + E(ZPE) + E(vib) + E(rot) + E(trans)
    E(el)   - is the total energy from the electronic structure calculation
              = E(kin-el) + E(nuc-el) + E(el-el) + E(nuc-nuc)
    E(ZPE)  - the the zero temperature vibrational energy from the frequency calculation
    E(vib)  - the the finite temperature correction to E(ZPE) due to population
              of excited vibrational states
    E(rot)  - is the rotational thermal energy
    E(trans)- is the translational thermal energy

Summary of contributions to the inner energy U:
Electronic energy                ...    -75.21867109 Eh
Zero point energy                ...      0.07326510 Eh      45.97 kcal/mol
Thermal vibrational correction   ...      0.00000000 Eh       0.00 kcal/mol
Thermal rotational correction    ...      0.00141627 Eh       0.89 kcal/mol
Thermal translational correction ...      0.00141627 Eh       0.89 kcal/mol
-----------------------------------------------------------------------
Total thermal energy                    -75.14257345 Eh

Summary of corrections to the electronic energy:
(perhaps to be used in another calculation)
Total thermal correction                  0.00283254 Eh       1.78 kcal/mol
Non-thermal (ZPE) correction              0.07326510 Eh      45.97 kcal/mol
-----------------------------------------------------------------------
Total correction                          0.07609764 Eh      47.75 kcal/mol

--------
ENTHALPY
--------

The enthalpy is H = U + kB*T
                kB is Boltzmann's constant
Total thermal energy              ...    -75.14257345 Eh
Thermal Enthalpy correction       ...      0.00094421 Eh       0.59 kcal/mol
-----------------------------------------------------------------------
Total Enthalpy                    ...    -75.14162924 Eh

Note: Rotational entropy computed according to Herzberg
Infrared and Raman Spectra, Chapter V,1, Van Nostrand Reinhold, 1945
Point Group:  C2v, Symmetry Number:   2
Rotational constants in cm-1:    82.581991    45.649824    29.398736

Vibrational entropy computed according to the QRRHO of S. Grimme
Chem.Eur.J. 2012 18 9955 using a reference frequency of 100.0 cm-1

-------
ENTROPY
-------

The entropy contributions are T*S = T*(S(el)+S(vib)+S(rot)+S(trans))
     S(el)   - electronic entropy
     S(vib)  - vibrational entropy
     S(rot)  - rotational entropy
     S(trans)- translational entropy
The entropies will be listed as multiplied by the temperature to get
units of energy

Electronic entropy                ...      0.00000000 Eh      0.00 kcal/mol
Vibrational entropy               ...     -0.00000000 Eh     -0.00 kcal/mol
Rotational entropy                ...      0.00337267 Eh      2.12 kcal/mol
Translational entropy             ...      0.01644380 Eh     10.32 kcal/mol
-----------------------------------------------------------------------
Final entropy term                ...      0.01981647 Eh     12.43 kcal/mol

In case the symmetry of your molecule has not been determined correctly
or in case you have a reason to use a different symmetry number we print
out the resulting rotational entropy values for sn=1,12:

 non-linear molecules -----------------------------------
|  sn= 1 | S(rot)=       0.00402713 Eh      2.53 kcal/mol|
|  sn= 2 | S(rot)=       0.00337267 Eh      2.12 kcal/mol|
|  sn= 3 | S(rot)=       0.00298984 Eh      1.88 kcal/mol|
|  sn= 4 | S(rot)=       0.00271822 Eh      1.71 kcal/mol|
|  sn= 5 | S(rot)=       0.00250753 Eh      1.57 kcal/mol|
|  sn= 6 | S(rot)=       0.00233538 Eh      1.47 kcal/mol|
|  sn= 7 | S(rot)=       0.00218984 Eh      1.37 kcal/mol|
|  sn= 8 | S(rot)=       0.00206376 Eh      1.30 kcal/mol|
|  sn= 9 | S(rot)=       0.00195255 Eh      1.23 kcal/mol|
|  sn=10 | S(rot)=       0.00185307 Eh      1.16 kcal/mol|
|  sn=11 | S(rot)=       0.00176308 Eh      1.11 kcal/mol|
|  sn=12 | S(rot)=       0.00168093 Eh      1.05 kcal/mol|
 linear molecules ---------------------------------------
|  Dinfh | S(rot)=       0.00213358 Eh      1.34 kcal/mol|
|  Cinfv | S(rot)=       0.00278803 Eh      1.75 kcal/mol|
 --------------------------------------------------------

-------------------
GIBBS FREE ENERGY
-------------------

The Gibbs free energy is G = H - T*S

Total enthalpy                    ...    -75.14162924 Eh
Total entropy correction          ...     -0.01981647 Eh    -12.43 kcal/mol
-----------------------------------------------------------------------
Final Gibbs free energy         ...    -75.16144572 Eh

For completeness - the Gibbs free energy minus the electronic energy
G-E(el)                           ...      0.05722537 Eh     35.91 kcal/mol

                             ****ORCA TERMINATED NORMALLY****
TOTAL RUN TIME: 0 days 0 hours 0 minutes 4 seconds 300 msec
