                         Program Version 6.0.1  -  RELEASE   -
|  1> ! B3LYP def2-SVP TightSCF Freq Engrad
|  2> * xyz 0 1
|  3>    N         -0.0012121005         -0.0002725128          0.0826494367
|  4>    H          0.4856061828          0.0118009854         -0.1515702645
|  5>    H         -0.2053240452          0.4581903963         -0.1278614025
|  6>    H         -0.2175820794         -0.4558789131         -0.1207607799
|  7> *
|  8> %elprop
|  9>  Polar 1
| 10> end
| 11>
| 12>                          ****END OF INPUT****

CARTESIAN COORDINATES (ANGSTROEM)
---------------------------------
  N     -0.001212   -0.000273    0.082649
  H      0.485606    0.011801   -0.151570
  H     -0.205324    0.458190   -0.127861
  H     -0.217582   -0.455879   -0.120761

 Total Charge           Charge          ....    0
 Multiplicity           Mult            ....    1
 Number of Electrons    NEL             ....   10
 Basis Dimension        Dim             ....   29

ORBITAL ENERGIES
----------------

  NO   OCC          E(Eh)            E(eV)
   0   2.0000     -14.245143      -387.6301
   1   2.0000      -1.109265       -30.1846
   2   2.0000      -0.666274       -18.1302
   3   2.0000      -0.594967       -16.1899
   4   2.0000      -0.284723        -7.7477
   5   0.0000       0.093789         2.5521
   6   0.0000       0.176384         4.7997
   7   0.0000       0.186444         5.0734
   8   0.0000       0.645794        17.5730
   9   0.0000       0.699391        19.0314

MULLIKEN ATOMIC CHARGES
-----------------------
   0 N :    0.935938
   1 H :   -0.286117
   2 H :   -0.317987
   3 H :   -0.331833
Sum of atomic charges:    0.0000000

LOEWDIN ATOMIC CHARGES
----------------------
   0 N :    0.413125
   1 H :   -0.135259
   2 H :   -0.137655
   3 H :   -0.140211

  Mayer bond orders larger than 0.100000
B(  0-N ,  1-H ) :   0.3169 B(  0-N ,  2-H ) :   0.3420 B(  0-N ,  3-H ) :   0.3411
B(  1-H ,  2-H ) :   0.2482 B(  1-H ,  3-H ) :   0.2505 B(  2-H ,  3-H ) :   0.2446

FINAL SINGLE POINT ENERGY       -54.584709097346

DIPOLE MOMENT
-------------

Method             : SCF
Type of density    : Electron Density
Multiplicity       :   1
Irrep              :   0
Energy             :   -54.5847090973462485 Eh
Relativity type    :
Basis              : AO
                                X                 Y                 Z
Electronic contribution:     -0.022515173      -0.005699811      -0.225390683
Nuclear contribution   :      0.051163193       0.011515055      -0.499891026
                        -----------------------------------------
Total Dipole Moment    :      0.028648020       0.005815245      -0.725281709
                        -----------------------------------------
Magnitude (a.u.)       :      0.725870570
Magnitude (Debye)      :      1.845016362

VIBRATIONAL FREQUENCIES
-----------------------

Scaling factor for frequencies =  1.000000000  (already applied!)

     0:       0.00 cm**-1
     1:       0.00 cm**-1
     2:       0.00 cm**-1
     3:       0.00 cm**-1
     4:       0.00 cm**-1
     5:       0.00 cm**-1
     6:   -8059.38 cm**-1  ***imaginary mode***
     7:   -7358.86 cm**-1  ***imaginary mode***
     8:   -7105.73 cm**-1  ***imaginary mode***
     9:   15077.17 cm**-1
    10:   15781.66 cm**-1
    11:   15833.94 cm**-1

IR SPECTRUM
-----------

 Mode   freq       eps      Int      T**2         TX        TY        TZ
       cm**-1   L/(mol*cm) km/mol    a.u.
----------------------------------------------------------------------------
  9:  15077.17   0.001139    5.76  0.000024  ( 0.002230  0.000121 -0.004311)
 10:  15781.66   0.006228   31.47  0.000123  ( 0.005473 -0.009648  0.000325)
 11:  15833.94   0.005955   30.09  0.000117  (-0.007708 -0.007608 -0.000251)

--------------------------
THERMOCHEMISTRY AT 298.15K
--------------------------

Temperature         ...   298.15 K
Pressure            ...     1.00 atm
Total Mass          ...    17.03 AMU
Quasi RRHO          ...     True
Cut-Off Frequency   ...     1.00 cm^-1

Throughout the following assumptions are being made:
  (1) The electronic state is orbitally nondegenerate
  (2) There are no thermally accessible electronically excited states
  (3) Hindered rotations indicated by low frequency modes are not
      treated as such but are treated as vibrations and this may
      cause some error
  (4) All equations used are the standard statistical mechanics
      equations for an ideal gas
  (5) All vibrations are strictly harmonic

freq.   15077.17  E(vib)   ...       0.00
freq.   15781.66  E(vib)   ...       0.00
freq.   15833.94  E(vib)   ...       0.00

------------
INNER ENERGY
------------

The inner energy is: U= E(el) + E(ZPE) + E(vib) + E(rot) + E(trans)
    E(el)   - is the total energy from the electronic structure calculation
              = E(kin-el) + E(nuc-el) + E(el-el) + E(nuc-nuc)
    E(ZPE)  - the the zero temperature vibrational energy from the frequency calculation
    E(vib)  - the the finite temperature correction to E(ZPE) due to population
              of excited vibrational states
    E(rot)  - is the rotational thermal energy
    E(trans)- is the translational thermal energy

Summary of contributions to the inner energy U:
Electronic energy                ...    -54.58470910 Eh
Zero point energy                ...      0.10637396 Eh      66.75 kcal/mol
Thermal vibrational correction   ...      0.00000000 Eh       0.00 kcal/mol
Thermal rotational correction    ...      0.00141627 Eh       0.89 kcal/mol
Thermal translational correction ...      0.00141627 Eh       0.89 kcal/mol
-----------------------------------------------------------------------
Total thermal energy                    -54.47550260 Eh

Summary of corrections to the electronic energy:
(perhaps to be used in another calculation)
Total thermal correction                  0.00283254 Eh       1.78 kcal/mol
Non-thermal (ZPE) correction              0.10637396 Eh      66.75 kcal/mol
-----------------------------------------------------------------------
Total correction                          0.10920650 Eh      68.53 kcal/mol

--------
ENTHALPY
--------

The enthalpy is H = U + kB*T
                kB is Boltzmann's constant
Total thermal energy              ...    -54.47550260 Eh
Thermal Enthalpy correction       ...      0.00094421 Eh       0.59 kcal/mol
-----------------------------------------------------------------------
Total Enthalpy                    ...    -54.47455839 Eh

Note: Only C1 symmetry has been detected, increase convergence thresholds
      if your molecule has a higher symmetry. Symmetry factor of 1.0 is
      used for the rotational entropy correction.

Note: Rotational entropy computed according to Herzberg
Infrared and Raman Spectra, Chapter V,1, Van Nostrand Reinhold, 1945
Point Group:  C1, Symmetry Number:   1
Rotational constants in cm-1:    38.061908    31.424502    22.417748

Vibrational entropy computed according to the QRRHO of S. Grimme
Chem.Eur.J. 2012 18 9955 using a reference frequency of 100.0 cm-1

-------
ENTROPY
-------

The entropy contributions are T*S = T*(S(el)+S(vib)+S(rot)+S(trans))
     S(el)   - electronic entropy
     S(vib)  - vibrational entropy
     S(rot)  - rotational entropy
     S(trans)- translational entropy
The entropies will be listed as multiplied by the temperature to get
units of energy

Electronic entropy                ...      0.00000000 Eh      0.00 kcal/mol
Vibrational entropy               ...     -0.00000000 Eh     -0.00 kcal/mol
Rotational entropy                ...      0.00469707 Eh      2.95 kcal/mol
Translational entropy             ...      0.01636425 Eh     10.27 kcal/mol
-----------------------------------------------------------------------
Final entropy term                ...      0.02106132 Eh     13.22 kcal/mol

In case the symmetry of your molecule has not been determined correctly
or in case you have a reason to use a different symmetry number we print
out the resulting rotational entropy values for sn=1,12:

 non-linear molecules -----------------------------------
|  sn= 1 | S(rot)=       0.00469707 Eh      2.95 kcal/mol|
|  sn= 2 | S(rot)=       0.00404261 Eh      2.54 kcal/mol|
|  sn= 3 | S(rot)=       0.00365978 Eh      2.30 kcal/mol|
|  sn= 4 | S(rot)=       0.00338815 Eh      2.13 kcal/mol|
|  sn= 5 | S(rot)=       0.00317747 Eh      1.99 kcal/mol|
|  sn= 6 | S(rot)=       0.00300532 Eh      1.89 kcal/mol|
|  sn= 7 | S(rot)=       0.00285978 Eh      1.79 kcal/mol|
|  sn= 8 | S(rot)=       0.00273370 Eh      1.72 kcal/mol|
|  sn= 9 | S(rot)=       0.00262249 Eh      1.65 kcal/mol|
|  sn=10 | S(rot)=       0.00252301 Eh      1.58 kcal/mol|
|  sn=11 | S(rot)=       0.00243302 Eh      1.53 kcal/mol|
|  sn=12 | S(rot)=       0.00235087 Eh      1.48 kcal/mol|
 linear molecules ---------------------------------------
|  Dinfh | S(rot)=       0.00238954 Eh      1.50 kcal/mol|
|  Cinfv | S(rot)=       0.00304400 Eh      1.91 kcal/mol|
 --------------------------------------------------------

-------------------
GIBBS FREE ENERGY
-------------------

The Gibbs free energy is G = H - T*S

Total enthalpy                    ...    -54.47455839 Eh
Total entropy correction          ...     -0.02106132 Eh    -13.22 kcal/mol
-----------------------------------------------------------------------
Final Gibbs free energy         ...    -54.49561971 Eh

For completeness - the Gibbs free energy minus the electronic energy
G-E(el)                           ...      0.08908939 Eh     55.90 kcal/mol

                             ****ORCA TERMINATED NORMALLY****
TOTAL RUN TIME: 0 days 0 hours 0 minutes 6 seconds 776 msec
