                         Program Version 6.0.1  -  RELEASE   -
|  1> ! B3LYP def2-SVP TightSCF Freq Engrad
|  2> * xyz 0 1
|  3>    N         -0.0000190463          0.0000024741          0.0831864835
|  4>    H          0.5236206879         -0.0000023108         -0.1428561915
|  5>    H         -0.2614205141          0.4528199915         -0.1425138519
|  6>    H         -0.2614630702         -0.4529451377         -0.1425790742
|  7> *
|  8> %elprop
|  9>  Polar 1
| 10> end
| 11>
| 12>                          ****END OF INPUT****

CARTESIAN COORDINATES (ANGSTROEM)
---------------------------------
  N     -0.000019    0.000002    0.083186
  H      0.523621   -0.000002   -0.142856
  H     -0.261421    0.452820   -0.142514
  H     -0.261463   -0.452945   -0.142579

 Total Charge           Charge          ....    0
 Multiplicity           Mult            ....    1
 Number of Electrons    NEL             ....   10
 Basis Dimension        Dim             ....   29

ORBITAL ENERGIES
----------------

  NO   OCC          E(Eh)            E(eV)
   0   2.0000     -14.229041      -387.1919
   1   2.0000      -1.087790       -29.6003
   2   2.0000      -0.618339       -16.8259
   3   2.0000      -0.618145       -16.8206
   4   2.0000      -0.280709        -7.6385
   5   0.0000       0.094162         2.5623
   6   0.0000       0.181938         4.9508
   7   0.0000       0.181952         4.9512
   8   0.0000       0.656006        17.8508
   9   0.0000       0.712188        19.3796

MULLIKEN ATOMIC CHARGES
-----------------------
   0 N :    0.826565
   1 H :   -0.274442
   2 H :   -0.276203
   3 H :   -0.275920
Sum of atomic charges:    0.0000000

LOEWDIN ATOMIC CHARGES
----------------------
   0 N :    0.362724
   1 H :   -0.120140
   2 H :   -0.121398
   3 H :   -0.121186

  Mayer bond orders larger than 0.100000
B(  0-N ,  1-H ) :   0.5077 B(  0-N ,  2-H ) :   0.5058 B(  0-N ,  3-H ) :   0.5061
B(  1-H ,  2-H ) :   0.2044 B(  1-H ,  3-H ) :   0.2043 B(  2-H ,  3-H ) :   0.2049

FINAL SINGLE POINT ENERGY       -54.930182848875

DIPOLE MOMENT
-------------

Method             : SCF
Type of density    : Electron Density
Multiplicity       :   1
Irrep              :   0
Energy             :   -54.9301828488748285 Eh
Relativity type    :
Basis              : AO
                                X                 Y                 Z
Electronic contribution:     -0.000369706       0.000073262      -0.192091420
Nuclear contribution   :      0.000612575      -0.000104028      -0.522541516
                        -----------------------------------------
Total Dipole Moment    :      0.000242869      -0.000030766      -0.714632936
                        -----------------------------------------
Magnitude (a.u.)       :      0.714632978
Magnitude (Debye)      :      1.816452674

VIBRATIONAL FREQUENCIES
-----------------------

Scaling factor for frequencies =  1.000000000  (already applied!)

     0:       0.00 cm**-1
     1:       0.00 cm**-1
     2:       0.00 cm**-1
     3:       0.00 cm**-1
     4:       0.00 cm**-1
     5:       0.00 cm**-1
     6:   -7179.61 cm**-1  ***imaginary mode***
     7:   -6413.40 cm**-1  ***imaginary mode***
     8:   -6401.25 cm**-1  ***imaginary mode***
     9:   13796.68 cm**-1
    10:   14428.46 cm**-1
    11:   14454.10 cm**-1

IR SPECTRUM
-----------

 Mode   freq       eps      Int      T**2         TX        TY        TZ
       cm**-1   L/(mol*cm) km/mol    a.u.
----------------------------------------------------------------------------
  9:  13796.68   0.000716    3.62  0.000016  ( 0.000311 -0.000048  0.004012)
 10:  14428.46   0.005603   28.32  0.000121  (-0.010968 -0.000942  0.000103)
 11:  14454.10   0.005607   28.34  0.000121  ( 0.000941 -0.010962 -0.000028)

--------------------------
THERMOCHEMISTRY AT 298.15K
--------------------------

Temperature         ...   298.15 K
Pressure            ...     1.00 atm
Total Mass          ...    17.03 AMU
Quasi RRHO          ...     True
Cut-Off Frequency   ...     1.00 cm^-1

Throughout the following assumptions are being made:
  (1) The electronic state is orbitally nondegenerate
  (2) There are no thermally accessible electronically excited states
  (3) Hindered rotations indicated by low frequency modes are not
      treated as such but are treated as vibrations and this may
      cause some error
  (4) All equations used are the standard statistical mechanics
      equations for an ideal gas
  (5) All vibrations are strictly harmonic

freq.   13796.68  E(vib)   ...       0.00
freq.   14428.46  E(vib)   ...       0.00
freq.   14454.10  E(vib)   ...       0.00

------------
INNER ENERGY
------------

The inner energy is: U= E(el) + E(ZPE) + E(vib) + E(rot) + E(trans)
    E(el)   - is the total energy from the electronic structure calculation
              = E(kin-el) + E(nuc-el) + E(el-el) + E(nuc-nuc)
    E(ZPE)  - the the zero temperature vibrational energy from the frequency calculation
    E(vib)  - the the finite temperature correction to E(ZPE) due to population
              of excited vibrational states
    E(rot)  - is the rotational thermal energy
    E(trans)- is the translational thermal energy

Summary of contributions to the inner energy U:
Electronic energy                ...    -54.93018285 Eh
Zero point energy                ...      0.09723046 Eh      61.01 kcal/mol
Thermal vibrational correction   ...      0.00000000 Eh       0.00 kcal/mol
Thermal rotational correction    ...      0.00141627 Eh       0.89 kcal/mol
Thermal translational correction ...      0.00141627 Eh       0.89 kcal/mol
-----------------------------------------------------------------------
Total thermal energy                    -54.83011984 Eh

Summary of corrections to the electronic energy:
(perhaps to be used in another calculation)
Total thermal correction                  0.00283254 Eh       1.78 kcal/mol
Non-thermal (ZPE) correction              0.09723046 Eh      61.01 kcal/mol
-----------------------------------------------------------------------
Total correction                          0.10006301 Eh      62.79 kcal/mol

--------
ENTHALPY
--------

The enthalpy is H = U + kB*T
                kB is Boltzmann's constant
Total thermal energy              ...    -54.83011984 Eh
Thermal Enthalpy correction       ...      0.00094421 Eh       0.59 kcal/mol
-----------------------------------------------------------------------
Total Enthalpy                    ...    -54.82917563 Eh

Note: Only C1 symmetry has been detected, increase convergence thresholds
      if your molecule has a higher symmetry. Symmetry factor of 1.0 is
      used for the rotational entropy correction.

Note: Rotational entropy computed according to Herzberg
Infrared and Raman Spectra, Chapter V,1, Van Nostrand Reinhold, 1945
Point Group:  C1, Symmetry Number:   1
Rotational constants in cm-1:    31.198914    31.159103    20.367923

Vibrational entropy computed according to the QRRHO of S. Grimme
Chem.Eur.J. 2012 18 9955 using a reference frequency of 100.0 cm-1

-------
ENTROPY
-------

The entropy contributions are T*S = T*(S(el)+S(vib)+S(rot)+S(trans))
     S(el)   - electronic entropy
     S(vib)  - vibrational entropy
     S(rot)  - rotational entropy
     S(trans)- translational entropy
The entropies will be listed as multiplied by the temperature to get
units of energy

Electronic entropy                ...      0.00000000 Eh      0.00 kcal/mol
Vibrational entropy               ...     -0.00000000 Eh     -0.00 kcal/mol
Rotational entropy                ...      0.00484021 Eh      3.04 kcal/mol
Translational entropy             ...      0.01636425 Eh     10.27 kcal/mol
-----------------------------------------------------------------------
Final entropy term                ...      0.02120446 Eh     13.31 kcal/mol

In case the symmetry of your molecule has not been determined correctly
or in case you have a reason to use a different symmetry number we print
out the resulting rotational entropy values for sn=1,12:

 non-linear molecules -----------------------------------
|  sn= 1 | S(rot)=       0.00484021 Eh      3.04 kcal/mol|
|  sn= 2 | S(rot)=       0.00418575 Eh      2.63 kcal/mol|
|  sn= 3 | S(rot)=       0.00380292 Eh      2.39 kcal/mol|
|  sn= 4 | S(rot)=       0.00353129 Eh      2.22 kcal/mol|
|  sn= 5 | S(rot)=       0.00332061 Eh      2.08 kcal/mol|
|  sn= 6 | S(rot)=       0.00314846 Eh      1.98 kcal/mol|
|  sn= 7 | S(rot)=       0.00300291 Eh      1.88 kcal/mol|
|  sn= 8 | S(rot)=       0.00287684 Eh      1.81 kcal/mol|
|  sn= 9 | S(rot)=       0.00276563 Eh      1.74 kcal/mol|
|  sn=10 | S(rot)=       0.00266615 Eh      1.67 kcal/mol|
|  sn=11 | S(rot)=       0.00257616 Eh      1.62 kcal/mol|
|  sn=12 | S(rot)=       0.00249400 Eh      1.57 kcal/mol|
 linear molecules ---------------------------------------
|  Dinfh | S(rot)=       0.00248008 Eh      1.56 kcal/mol|
|  Cinfv | S(rot)=       0.00313454 Eh      1.97 kcal/mol|
 --------------------------------------------------------

-------------------
GIBBS FREE ENERGY
-------------------

The Gibbs free energy is G = H - T*S

Total enthalpy                    ...    -54.82917563 Eh
Total entropy correction          ...     -0.02120446 Eh    -13.31 kcal/mol
-----------------------------------------------------------------------
Final Gibbs free energy         ...    -54.85038009 Eh

For completeness - the Gibbs free energy minus the electronic energy
G-E(el)                           ...      0.07980276 Eh     50.08 kcal/mol

                             ****ORCA TERMINATED NORMALLY****
TOTAL RUN TIME: 0 days 0 hours 0 minutes 6 seconds 743 msec
