                         Program Version 6.0.1  -  RELEASE   -
|  1> ! B3LYP def2-SVP TightSCF Freq Engrad
|  2> * xyz 0 1
|  3>    N          0.0000759555          0.0010161517          0.0826476141
|  4>    H          0.4933530770          0.0010547777         -0.1321498438
|  5>    H         -0.2326336794          0.4041802996         -0.1206863068
|  6>    H         -0.2649239476         -0.4578961912         -0.1472816361
|  7> *
|  8> %elprop
|  9>  Polar 1
| 10> end
| 11>
| 12>                          ****END OF INPUT****

CARTESIAN COORDINATES (ANGSTROEM)
---------------------------------
  N      0.000076    0.001016    0.082648
  H      0.493353    0.001055   -0.132150
  H     -0.232634    0.404180   -0.120686
  H     -0.264924   -0.457896   -0.147282

 Total Charge           Charge          ....    0
 Multiplicity           Mult            ....    1
 Number of Electrons    NEL             ....   10
 Basis Dimension        Dim             ....   29

ORBITAL ENERGIES
----------------

  NO   OCC          E(Eh)            E(eV)
   0   2.0000     -14.249732      -387.7549
   1   2.0000      -1.106413       -30.1070
   2   2.0000      -0.637319       -17.3423
   3   2.0000      -0.626235       -17.0407
   4   2.0000      -0.284980        -7.7547
   5   0.0000       0.094166         2.5624
   6   0.0000       0.180803         4.9199
   7   0.0000       0.181295         4.9333
   8   0.0000       0.643653        17.5147
   9   0.0000       0.716208        19.4890

MULLIKEN ATOMIC CHARGES
-----------------------
   0 N :    0.950984
   1 H :   -0.323193
   2 H :   -0.377356
   3 H :   -0.250436
Sum of atomic charges:    0.0000000

LOEWDIN ATOMIC CHARGES
----------------------
   0 N :    0.416866
   1 H :   -0.141820
   2 H :   -0.190132
   3 H :   -0.084914

  Mayer bond orders larger than 0.100000
B(  0-N ,  1-H ) :   0.3050 B(  0-N ,  2-H ) :   0.2064 B(  0-N ,  3-H ) :   0.4132
B(  1-H ,  2-H ) :   0.2764 B(  1-H ,  3-H ) :   0.2296 B(  2-H ,  3-H ) :   0.2488

FINAL SINGLE POINT ENERGY       -54.528837835596

DIPOLE MOMENT
-------------

Method             : SCF
Type of density    : Electron Density
Multiplicity       :   1
Irrep              :   0
Energy             :   -54.5288378355957661 Eh
Relativity type    :
Basis              : AO
                                X                 Y                 Z
Electronic contribution:      0.002634165       0.030599636      -0.229610839
Nuclear contribution   :     -0.003418586      -0.042967077      -0.499829226
                        -----------------------------------------
Total Dipole Moment    :     -0.000784422      -0.012367440      -0.729440065
                        -----------------------------------------
Magnitude (a.u.)       :      0.729545323
Magnitude (Debye)      :      1.854356842

VIBRATIONAL FREQUENCIES
-----------------------

Scaling factor for frequencies =  1.000000000  (already applied!)

     0:       0.00 cm**-1
     1:       0.00 cm**-1
     2:       0.00 cm**-1
     3:       0.00 cm**-1
     4:       0.00 cm**-1
     5:       0.00 cm**-1
     6:   -8432.38 cm**-1  ***imaginary mode***
     7:   -7987.13 cm**-1  ***imaginary mode***
     8:   -6866.24 cm**-1  ***imaginary mode***
     9:   13778.60 cm**-1
    10:   15815.85 cm**-1
    11:   17636.80 cm**-1

IR SPECTRUM
-----------

 Mode   freq       eps      Int      T**2         TX        TY        TZ
       cm**-1   L/(mol*cm) km/mol    a.u.
----------------------------------------------------------------------------
  9:  13778.60   0.003368   17.02  0.000076  (-0.003815 -0.007411  0.002609)
 10:  15815.85   0.004535   22.92  0.000089  (-0.008865 -0.001937 -0.002671)
 11:  17636.80   0.005623   28.42  0.000099  (-0.005316  0.008111  0.002333)

--------------------------
THERMOCHEMISTRY AT 298.15K
--------------------------

Temperature         ...   298.15 K
Pressure            ...     1.00 atm
Total Mass          ...    17.03 AMU
Quasi RRHO          ...     True
Cut-Off Frequency   ...     1.00 cm^-1

Throughout the following assumptions are being made:
  (1) The electronic state is orbitally nondegenerate
  (2) There are no thermally accessible electronically excited states
  (3) Hindered rotations indicated by low frequency modes are not
      treated as such but are treated as vibrations and this may
      cause some error
  (4) All equations used are the standard statistical mechanics
      equations for an ideal gas
  (5) All vibrations are strictly harmonic

freq.   13778.60  E(vib)   ...       0.00
freq.   15815.85  E(vib)   ...       0.00
freq.   17636.80  E(vib)   ...       0.00

------------
INNER ENERGY
------------

The inner energy is: U= E(el) + E(ZPE) + E(vib) + E(rot) + E(trans)
    E(el)   - is the total energy from the electronic structure calculation
              = E(kin-el) + E(nuc-el) + E(el-el) + E(nuc-nuc)
    E(ZPE)  - the the zero temperature vibrational energy from the frequency calculation
    E(vib)  - the the finite temperature correction to E(ZPE) due to population
              of excited vibrational states
    E(rot)  - is the rotational thermal energy
    E(trans)- is the translational thermal energy

Summary of contributions to the inner energy U:
Electronic energy                ...    -54.52883784 Eh
Zero point energy                ...      0.10760068 Eh      67.52 kcal/mol
Thermal vibrational correction   ...      0.00000000 Eh       0.00 kcal/mol
Thermal rotational correction    ...      0.00141627 Eh       0.89 kcal/mol
Thermal translational correction ...      0.00141627 Eh       0.89 kcal/mol
-----------------------------------------------------------------------
Total thermal energy                    -54.41840462 Eh

Summary of corrections to the electronic energy:
(perhaps to be used in another calculation)
Total thermal correction                  0.00283254 Eh       1.78 kcal/mol
Non-thermal (ZPE) correction              0.10760068 Eh      67.52 kcal/mol
-----------------------------------------------------------------------
Total correction                          0.11043322 Eh      69.30 kcal/mol

--------
ENTHALPY
--------

The enthalpy is H = U + kB*T
                kB is Boltzmann's constant
Total thermal energy              ...    -54.41840462 Eh
Thermal Enthalpy correction       ...      0.00094421 Eh       0.59 kcal/mol
-----------------------------------------------------------------------
Total Enthalpy                    ...    -54.41746041 Eh

Note: Only C1 symmetry has been detected, increase convergence thresholds
      if your molecule has a higher symmetry. Symmetry factor of 1.0 is
      used for the rotational entropy correction.

Note: Rotational entropy computed according to Herzberg
Infrared and Raman Spectra, Chapter V,1, Van Nostrand Reinhold, 1945
Point Group:  C1, Symmetry Number:   1
Rotational constants in cm-1:    36.607515    32.597827    22.526015

Vibrational entropy computed according to the QRRHO of S. Grimme
Chem.Eur.J. 2012 18 9955 using a reference frequency of 100.0 cm-1

-------
ENTROPY
-------

The entropy contributions are T*S = T*(S(el)+S(vib)+S(rot)+S(trans))
     S(el)   - electronic entropy
     S(vib)  - vibrational entropy
     S(rot)  - rotational entropy
     S(trans)- translational entropy
The entropies will be listed as multiplied by the temperature to get
units of energy

Electronic entropy                ...      0.00000000 Eh      0.00 kcal/mol
Vibrational entropy               ...     -0.00000000 Eh     -0.00 kcal/mol
Rotational entropy                ...      0.00469588 Eh      2.95 kcal/mol
Translational entropy             ...      0.01636425 Eh     10.27 kcal/mol
-----------------------------------------------------------------------
Final entropy term                ...      0.02106013 Eh     13.22 kcal/mol

In case the symmetry of your molecule has not been determined correctly
or in case you have a reason to use a different symmetry number we print
out the resulting rotational entropy values for sn=1,12:

 non-linear molecules -----------------------------------
|  sn= 1 | S(rot)=       0.00469588 Eh      2.95 kcal/mol|
|  sn= 2 | S(rot)=       0.00404142 Eh      2.54 kcal/mol|
|  sn= 3 | S(rot)=       0.00365859 Eh      2.30 kcal/mol|
|  sn= 4 | S(rot)=       0.00338697 Eh      2.13 kcal/mol|
|  sn= 5 | S(rot)=       0.00317628 Eh      1.99 kcal/mol|
|  sn= 6 | S(rot)=       0.00300413 Eh      1.89 kcal/mol|
|  sn= 7 | S(rot)=       0.00285859 Eh      1.79 kcal/mol|
|  sn= 8 | S(rot)=       0.00273251 Eh      1.71 kcal/mol|
|  sn= 9 | S(rot)=       0.00262130 Eh      1.64 kcal/mol|
|  sn=10 | S(rot)=       0.00252182 Eh      1.58 kcal/mol|
|  sn=11 | S(rot)=       0.00243183 Eh      1.53 kcal/mol|
|  sn=12 | S(rot)=       0.00234968 Eh      1.47 kcal/mol|
 linear molecules ---------------------------------------
|  Dinfh | S(rot)=       0.00238499 Eh      1.50 kcal/mol|
|  Cinfv | S(rot)=       0.00303945 Eh      1.91 kcal/mol|
 --------------------------------------------------------

-------------------
GIBBS FREE ENERGY
-------------------

The Gibbs free energy is G = H - T*S

Total enthalpy                    ...    -54.41746041 Eh
Total entropy correction          ...     -0.02106013 Eh    -13.22 kcal/mol
-----------------------------------------------------------------------
Final Gibbs free energy         ...    -54.43852054 Eh

For completeness - the Gibbs free energy minus the electronic energy
G-E(el)                           ...      0.09031730 Eh     56.67 kcal/mol

                             ****ORCA TERMINATED NORMALLY****
TOTAL RUN TIME: 0 days 0 hours 0 minutes 6 seconds 745 msec
