                         Program Version 6.0.1  -  RELEASE   -
|  1> ! B3LYP def2-SVP TightSCF Freq
|  2> * xyz 0 1
|  3>    N         -0.0000051847          0.0000000054          0.0826483076
|  4>    H          0.4962655586         -0.0000000115         -0.1333866128
|  5>    H         -0.2481301953          0.4297825850         -0.1333840088
|  6>    H         -0.2481301786         -0.4297825789         -0.1333840125
|  7> *
|  8>
|  9>                          ****END OF INPUT****

CARTESIAN COORDINATES (ANGSTROEM)
---------------------------------
  N     -0.000005    0.000000    0.082648
  H      0.496266   -0.000000   -0.133387
  H     -0.248130    0.429783   -0.133384
  H     -0.248130   -0.429783   -0.133384

 Total Charge           Charge          ....    0
 Multiplicity           Mult            ....    1
 Number of Electrons    NEL             ....   10
 Basis Dimension        Dim             ....   29

ORBITAL ENERGIES
----------------

  NO   OCC          E(Eh)            E(eV)
   0   2.0000     -14.245565      -387.6415
   1   2.0000      -1.106830       -30.1184
   2   2.0000      -0.632044       -17.1988
   3   2.0000      -0.632040       -17.1987
   4   2.0000      -0.284843        -7.7510
   5   0.0000       0.094164         2.5623
   6   0.0000       0.181206         4.9309
   7   0.0000       0.181218         4.9312
   8   0.0000       0.645197        17.5567
   9   0.0000       0.719076        19.5671

MULLIKEN ATOMIC CHARGES
-----------------------
   0 N :    0.950763
   1 H :   -0.316795
   2 H :   -0.316984
   3 H :   -0.316984
Sum of atomic charges:    0.0000000

LOEWDIN ATOMIC CHARGES
----------------------
   0 N :    0.414349
   1 H :   -0.138082
   2 H :   -0.138134
   3 H :   -0.138134

  Mayer bond orders larger than 0.100000
B(  0-N ,  1-H ) :   0.3159 B(  0-N ,  2-H ) :   0.3157 B(  0-N ,  3-H ) :   0.3157
B(  1-H ,  2-H ) :   0.2524 B(  1-H ,  3-H ) :   0.2524 B(  2-H ,  3-H ) :   0.2525

FINAL SINGLE POINT ENERGY       -54.567635750465

DIPOLE MOMENT
-------------

Method             : SCF
Type of density    : Electron Density
Multiplicity       :   1
Irrep              :   0
Energy             :   -54.5676357504653993 Eh
Relativity type    :
Basis              : AO
                                X                 Y                 Z
Electronic contribution:      0.000043819       0.000000008      -0.228874400
Nuclear contribution   :      0.000015995      -0.000000017      -0.499859250
                        -----------------------------------------
Total Dipole Moment    :      0.000059815      -0.000000009      -0.728733650
                        -----------------------------------------
Magnitude (a.u.)       :      0.728733652
Magnitude (Debye)      :      1.852293740

VIBRATIONAL FREQUENCIES
-----------------------

Scaling factor for frequencies =  1.000000000  (already applied!)

     0:       0.00 cm**-1
     1:       0.00 cm**-1
     2:       0.00 cm**-1
     3:       0.00 cm**-1
     4:       0.00 cm**-1
     5:       0.00 cm**-1
     6:   -8104.36 cm**-1  ***imaginary mode***
     7:   -7294.60 cm**-1  ***imaginary mode***
     8:   -7292.90 cm**-1  ***imaginary mode***
     9:   15172.05 cm**-1
    10:   15880.11 cm**-1
    11:   15880.72 cm**-1

IR SPECTRUM
-----------

 Mode   freq       eps      Int      T**2         TX        TY        TZ
       cm**-1   L/(mol*cm) km/mol    a.u.
----------------------------------------------------------------------------
  9:  15172.05   0.000985    4.98  0.000020  ( 0.000002 -0.000000  0.004502)
 10:  15880.11   0.006119   30.92  0.000120  ( 0.010965 -0.000000  0.000018)
 11:  15880.72   0.006101   30.83  0.000120  (-0.000000 -0.010949 -0.000000)

--------------------------
THERMOCHEMISTRY AT 298.15K
--------------------------

Temperature         ...   298.15 K
Pressure            ...     1.00 atm
Total Mass          ...    17.03 AMU
Quasi RRHO          ...     True
Cut-Off Frequency   ...     1.00 cm^-1

Throughout the following assumptions are being made:
  (1) The electronic state is orbitally nondegenerate
  (2) There are no thermally accessible electronically excited states
  (3) Hindered rotations indicated by low frequency modes are not
      treated as such but are treated as vibrations and this may
      cause some error
  (4) All equations used are the standard statistical mechanics
      equations for an ideal gas
  (5) All vibrations are strictly harmonic

freq.   15172.05  E(vib)   ...       0.00
freq.   15880.11  E(vib)   ...       0.00
freq.   15880.72  E(vib)   ...       0.00

------------
INNER ENERGY
------------

The inner energy is: U= E(el) + E(ZPE) + E(vib) + E(rot) + E(trans)
    E(el)   - is the total energy from the electronic structure calculation
              = E(kin-el) + E(nuc-el) + E(el-el) + E(nuc-nuc)
    E(ZPE)  - the the zero temperature vibrational energy from the frequency calculation
    E(vib)  - the the finite temperature correction to E(ZPE) due to population
              of excited vibrational states
    E(rot)  - is the rotational thermal energy
    E(trans)- is the translational thermal energy

Summary of contributions to the inner energy U:
Electronic energy                ...    -54.56763575 Eh
Zero point energy                ...      0.10692098 Eh      67.09 kcal/mol
Thermal vibrational correction   ...      0.00000000 Eh       0.00 kcal/mol
Thermal rotational correction    ...      0.00141627 Eh       0.89 kcal/mol
Thermal translational correction ...      0.00141627 Eh       0.89 kcal/mol
-----------------------------------------------------------------------
Total thermal energy                    -54.45788223 Eh

Summary of corrections to the electronic energy:
(perhaps to be used in another calculation)
Total thermal correction                  0.00283254 Eh       1.78 kcal/mol
Non-thermal (ZPE) correction              0.10692098 Eh      67.09 kcal/mol
-----------------------------------------------------------------------
Total correction                          0.10975352 Eh      68.87 kcal/mol

--------
ENTHALPY
--------

The enthalpy is H = U + kB*T
                kB is Boltzmann's constant
Total thermal energy              ...    -54.45788223 Eh
Thermal Enthalpy correction       ...      0.00094421 Eh       0.59 kcal/mol
-----------------------------------------------------------------------
Total Enthalpy                    ...    -54.45693802 Eh

Note: Rotational entropy computed according to Herzberg
Infrared and Raman Spectra, Chapter V,1, Van Nostrand Reinhold, 1945
Point Group:  C3v, Symmetry Number:   3
Rotational constants in cm-1:    34.512947    34.512274    22.635199

Vibrational entropy computed according to the QRRHO of S. Grimme
Chem.Eur.J. 2012 18 9955 using a reference frequency of 100.0 cm-1

-------
ENTROPY
-------

The entropy contributions are T*S = T*(S(el)+S(vib)+S(rot)+S(trans))
     S(el)   - electronic entropy
     S(vib)  - vibrational entropy
     S(rot)  - rotational entropy
     S(trans)- translational entropy
The entropies will be listed as multiplied by the temperature to get
units of energy

Electronic entropy                ...      0.00000000 Eh      0.00 kcal/mol
Vibrational entropy               ...     -0.00000000 Eh     -0.00 kcal/mol
Rotational entropy                ...      0.00365718 Eh      2.29 kcal/mol
Translational entropy             ...      0.01636425 Eh     10.27 kcal/mol
-----------------------------------------------------------------------
Final entropy term                ...      0.02002143 Eh     12.56 kcal/mol

In case the symmetry of your molecule has not been determined correctly
or in case you have a reason to use a different symmetry number we print
out the resulting rotational entropy values for sn=1,12:

 non-linear molecules -----------------------------------
|  sn= 1 | S(rot)=       0.00469447 Eh      2.95 kcal/mol|
|  sn= 2 | S(rot)=       0.00404001 Eh      2.54 kcal/mol|
|  sn= 3 | S(rot)=       0.00365718 Eh      2.29 kcal/mol|
|  sn= 4 | S(rot)=       0.00338556 Eh      2.12 kcal/mol|
|  sn= 5 | S(rot)=       0.00317487 Eh      1.99 kcal/mol|
|  sn= 6 | S(rot)=       0.00300272 Eh      1.88 kcal/mol|
|  sn= 7 | S(rot)=       0.00285718 Eh      1.79 kcal/mol|
|  sn= 8 | S(rot)=       0.00273110 Eh      1.71 kcal/mol|
|  sn= 9 | S(rot)=       0.00261989 Eh      1.64 kcal/mol|
|  sn=10 | S(rot)=       0.00252041 Eh      1.58 kcal/mol|
|  sn=11 | S(rot)=       0.00243042 Eh      1.53 kcal/mol|
|  sn=12 | S(rot)=       0.00234827 Eh      1.47 kcal/mol|
 linear molecules ---------------------------------------
|  Dinfh | S(rot)=       0.00238043 Eh      1.49 kcal/mol|
|  Cinfv | S(rot)=       0.00303488 Eh      1.90 kcal/mol|
 --------------------------------------------------------

-------------------
GIBBS FREE ENERGY
-------------------

The Gibbs free energy is G = H - T*S

Total enthalpy                    ...    -54.45693802 Eh
Total entropy correction          ...     -0.02002143 Eh    -12.56 kcal/mol
-----------------------------------------------------------------------
Final Gibbs free energy         ...    -54.47695945 Eh

For completeness - the Gibbs free energy minus the electronic energy
G-E(el)                           ...      0.09067630 Eh     56.90 kcal/mol

                             ****ORCA TERMINATED NORMALLY****
TOTAL RUN TIME: 0 days 0 hours 0 minutes 6 seconds 52 msec
