                         Program Version 6.0.1  -  RELEASE   -
|  1> ! B3LYP def2-SVP TightSCF Freq Engrad
|  2> * xyz 0 1
|  3>    N          0.0002667028         -0.0012107192          0.0826482867
|  4>    H          0.4986911590          0.0524285400         -0.1292927735
|  5>    H         -0.2291350597          0.4288377487         -0.1512032522
|  6>    H         -0.2836491402         -0.4184773509         -0.1196440868
|  7> *
|  8> %elprop
|  9>  Polar 1
| 10> end
| 11>
| 12>                          ****END OF INPUT****

CARTESIAN COORDINATES (ANGSTROEM)
---------------------------------
  N      0.000267   -0.001211    0.082648
  H      0.498691    0.052429   -0.129293
  H     -0.229135    0.428838   -0.151203
  H     -0.283649   -0.418477   -0.119644

 Total Charge           Charge          ....    0
 Multiplicity           Mult            ....    1
 Number of Electrons    NEL             ....   10
 Basis Dimension        Dim             ....   29

ORBITAL ENERGIES
----------------

  NO   OCC          E(Eh)            E(eV)
   0   2.0000     -14.245032      -387.6270
   1   2.0000      -1.109182       -30.1824
   2   2.0000      -0.666382       -18.1332
   3   2.0000      -0.594773       -16.1846
   4   2.0000      -0.284669        -7.7462
   5   0.0000       0.093798         2.5524
   6   0.0000       0.176402         4.8001
   7   0.0000       0.186436         5.0732
   8   0.0000       0.645817        17.5736
   9   0.0000       0.699691        19.0396

MULLIKEN ATOMIC CHARGES
-----------------------
   0 N :    0.935955
   1 H :   -0.315211
   2 H :   -0.286583
   3 H :   -0.334161
Sum of atomic charges:   -0.0000000

LOEWDIN ATOMIC CHARGES
----------------------
   0 N :    0.413100
   1 H :   -0.137181
   2 H :   -0.135160
   3 H :   -0.140759

  Mayer bond orders larger than 0.100000
B(  0-N ,  1-H ) :   0.3421 B(  0-N ,  2-H ) :   0.3178 B(  0-N ,  3-H ) :   0.3408
B(  1-H ,  2-H ) :   0.2477 B(  1-H ,  3-H ) :   0.2447 B(  2-H ,  3-H ) :   0.2508

FINAL SINGLE POINT ENERGY       -54.585500740687

DIPOLE MOMENT
-------------

Method             : SCF
Type of density    : Electron Density
Multiplicity       :   1
Irrep              :   0
Energy             :   -54.5855007406866477 Eh
Relativity type    :
Basis              : AO
                                X                 Y                 Z
Electronic contribution:      0.004419474      -0.023051906      -0.225367226
Nuclear contribution   :     -0.011486628       0.051228547      -0.499848002
                        -----------------------------------------
Total Dipole Moment    :     -0.007067154       0.028176642      -0.725215227
                        -----------------------------------------
Magnitude (a.u.)       :      0.725796799
Magnitude (Debye)      :      1.844828853

VIBRATIONAL FREQUENCIES
-----------------------

Scaling factor for frequencies =  1.000000000  (already applied!)

     0:       0.00 cm**-1
     1:       0.00 cm**-1
     2:       0.00 cm**-1
     3:       0.00 cm**-1
     4:       0.00 cm**-1
     5:       0.00 cm**-1
     6:   -8059.01 cm**-1  ***imaginary mode***
     7:   -7364.73 cm**-1  ***imaginary mode***
     8:   -7095.31 cm**-1  ***imaginary mode***
     9:   15076.95 cm**-1
    10:   15768.86 cm**-1
    11:   15838.24 cm**-1

IR SPECTRUM
-----------

 Mode   freq       eps      Int      T**2         TX        TY        TZ
       cm**-1   L/(mol*cm) km/mol    a.u.
----------------------------------------------------------------------------
  9:  15076.95   0.001122    5.67  0.000023  (-0.000947  0.001938 -0.004309)
 10:  15768.86   0.005800   29.31  0.000115  ( 0.010661 -0.001010 -0.000326)
 11:  15838.24   0.006402   32.35  0.000126  (-0.003880 -0.010539 -0.000153)

--------------------------
THERMOCHEMISTRY AT 298.15K
--------------------------

Temperature         ...   298.15 K
Pressure            ...     1.00 atm
Total Mass          ...    17.03 AMU
Quasi RRHO          ...     True
Cut-Off Frequency   ...     1.00 cm^-1

Throughout the following assumptions are being made:
  (1) The electronic state is orbitally nondegenerate
  (2) There are no thermally accessible electronically excited states
  (3) Hindered rotations indicated by low frequency modes are not
      treated as such but are treated as vibrations and this may
      cause some error
  (4) All equations used are the standard statistical mechanics
      equations for an ideal gas
  (5) All vibrations are strictly harmonic

freq.   15076.95  E(vib)   ...       0.00
freq.   15768.86  E(vib)   ...       0.00
freq.   15838.24  E(vib)   ...       0.00

------------
INNER ENERGY
------------

The inner energy is: U= E(el) + E(ZPE) + E(vib) + E(rot) + E(trans)
    E(el)   - is the total energy from the electronic structure calculation
              = E(kin-el) + E(nuc-el) + E(el-el) + E(nuc-nuc)
    E(ZPE)  - the the zero temperature vibrational energy from the frequency calculation
    E(vib)  - the the finite temperature correction to E(ZPE) due to population
              of excited vibrational states
    E(rot)  - is the rotational thermal energy
    E(trans)- is the translational thermal energy

Summary of contributions to the inner energy U:
Electronic energy                ...    -54.58550074 Eh
Zero point energy                ...      0.10635408 Eh      66.74 kcal/mol
Thermal vibrational correction   ...      0.00000000 Eh       0.00 kcal/mol
Thermal rotational correction    ...      0.00141627 Eh       0.89 kcal/mol
Thermal translational correction ...      0.00141627 Eh       0.89 kcal/mol
-----------------------------------------------------------------------
Total thermal energy                    -54.47631412 Eh

Summary of corrections to the electronic energy:
(perhaps to be used in another calculation)
Total thermal correction                  0.00283254 Eh       1.78 kcal/mol
Non-thermal (ZPE) correction              0.10635408 Eh      66.74 kcal/mol
-----------------------------------------------------------------------
Total correction                          0.10918662 Eh      68.52 kcal/mol

--------
ENTHALPY
--------

The enthalpy is H = U + kB*T
                kB is Boltzmann's constant
Total thermal energy              ...    -54.47631412 Eh
Thermal Enthalpy correction       ...      0.00094421 Eh       0.59 kcal/mol
-----------------------------------------------------------------------
Total Enthalpy                    ...    -54.47536991 Eh

Note: Only C1 symmetry has been detected, increase convergence thresholds
      if your molecule has a higher symmetry. Symmetry factor of 1.0 is
      used for the rotational entropy correction.

Note: Rotational entropy computed according to Herzberg
Infrared and Raman Spectra, Chapter V,1, Van Nostrand Reinhold, 1945
Point Group:  C1, Symmetry Number:   1
Rotational constants in cm-1:    38.079279    31.399759    22.412804

Vibrational entropy computed according to the QRRHO of S. Grimme
Chem.Eur.J. 2012 18 9955 using a reference frequency of 100.0 cm-1

-------
ENTROPY
-------

The entropy contributions are T*S = T*(S(el)+S(vib)+S(rot)+S(trans))
     S(el)   - electronic entropy
     S(vib)  - vibrational entropy
     S(rot)  - rotational entropy
     S(trans)- translational entropy
The entropies will be listed as multiplied by the temperature to get
units of energy

Electronic entropy                ...      0.00000000 Eh      0.00 kcal/mol
Vibrational entropy               ...     -0.00000000 Eh     -0.00 kcal/mol
Rotational entropy                ...      0.00469733 Eh      2.95 kcal/mol
Translational entropy             ...      0.01636425 Eh     10.27 kcal/mol
-----------------------------------------------------------------------
Final entropy term                ...      0.02106158 Eh     13.22 kcal/mol

In case the symmetry of your molecule has not been determined correctly
or in case you have a reason to use a different symmetry number we print
out the resulting rotational entropy values for sn=1,12:

 non-linear molecules -----------------------------------
|  sn= 1 | S(rot)=       0.00469733 Eh      2.95 kcal/mol|
|  sn= 2 | S(rot)=       0.00404287 Eh      2.54 kcal/mol|
|  sn= 3 | S(rot)=       0.00366004 Eh      2.30 kcal/mol|
|  sn= 4 | S(rot)=       0.00338841 Eh      2.13 kcal/mol|
|  sn= 5 | S(rot)=       0.00317773 Eh      1.99 kcal/mol|
|  sn= 6 | S(rot)=       0.00300558 Eh      1.89 kcal/mol|
|  sn= 7 | S(rot)=       0.00286004 Eh      1.79 kcal/mol|
|  sn= 8 | S(rot)=       0.00273396 Eh      1.72 kcal/mol|
|  sn= 9 | S(rot)=       0.00262275 Eh      1.65 kcal/mol|
|  sn=10 | S(rot)=       0.00252327 Eh      1.58 kcal/mol|
|  sn=11 | S(rot)=       0.00243328 Eh      1.53 kcal/mol|
|  sn=12 | S(rot)=       0.00235113 Eh      1.48 kcal/mol|
 linear molecules ---------------------------------------
|  Dinfh | S(rot)=       0.00238975 Eh      1.50 kcal/mol|
|  Cinfv | S(rot)=       0.00304421 Eh      1.91 kcal/mol|
 --------------------------------------------------------

-------------------
GIBBS FREE ENERGY
-------------------

The Gibbs free energy is G = H - T*S

Total enthalpy                    ...    -54.47536991 Eh
Total entropy correction          ...     -0.02106158 Eh    -13.22 kcal/mol
-----------------------------------------------------------------------
Final Gibbs free energy         ...    -54.49643149 Eh

For completeness - the Gibbs free energy minus the electronic energy
G-E(el)                           ...      0.08906926 Eh     55.89 kcal/mol

                             ****ORCA TERMINATED NORMALLY****
TOTAL RUN TIME: 0 days 0 hours 0 minutes 6 seconds 737 msec
