                         Program Version 6.0.1  -  RELEASE   -
|  1> ! B3LYP def2-SVP TightSCF Freq Engrad
|  2> * xyz 0 1
|  3>    O          0.0000000436         -0.0069528063          0.0000000001
|  4>    H          0.3733367312          0.2918744279         -0.0000002005
|  5>    H         -0.3733394822          0.2918765712          0.0000001695
|  6> *
|  7> %elprop
|  8>  Polar 1
|  9> end
| 10>
| 11>                          ****END OF INPUT****

CARTESIAN COORDINATES (ANGSTROEM)
---------------------------------
  O      0.000000   -0.006953    0.000000
  H      0.373337    0.291874   -0.000000
  H     -0.373339    0.291877    0.000000

 Total Charge           Charge          ....    0
 Multiplicity           Mult            ....    1
 Number of Electrons    NEL             ....   10
 Basis Dimension        Dim             ....   24

ORBITAL ENERGIES
----------------

  NO   OCC          E(Eh)            E(eV)
   0   2.0000     -19.114988      -520.1453
   1   2.0000      -1.314124       -35.7591
   2   2.0000      -0.766947       -20.8697
   3   2.0000      -0.427606       -11.6357
   4   2.0000      -0.355441        -9.6721
   5   0.0000       0.105102         2.8600
   6   0.0000       0.180520         4.9122
   7   0.0000       0.750006        20.4087
   8   0.0000       0.797531        21.7019
   9   0.0000       0.892752        24.2930

MULLIKEN ATOMIC CHARGES
-----------------------
   0 O :    0.509744
   1 H :   -0.254875
   2 H :   -0.254868
Sum of atomic charges:   -0.0000000

LOEWDIN ATOMIC CHARGES
----------------------
   0 O :    0.627681
   1 H :   -0.313844
   2 H :   -0.313837

  Mayer bond orders larger than 0.100000
B(  0-O ,  1-H ) :   0.8288 B(  0-O ,  2-H ) :   0.8288 B(  1-H ,  2-H ) :   0.1918

FINAL SINGLE POINT ENERGY       -74.437524021409

DIPOLE MOMENT
-------------

Method             : SCF
Type of density    : Electron Density
Multiplicity       :   1
Irrep              :   0
Energy             :   -74.4375240214093878 Eh
Relativity type    :
Basis              : AO
                                X                 Y                 Z
Electronic contribution:      0.000001423       0.172561442      -0.000000009
Nuclear contribution   :     -0.000002362       0.497465838      -0.000000026
                        -----------------------------------------
Total Dipole Moment    :     -0.000000939       0.670027280      -0.000000035
                        -----------------------------------------
Magnitude (a.u.)       :      0.670027280
Magnitude (Debye)      :      1.703073999

VIBRATIONAL FREQUENCIES
-----------------------

Scaling factor for frequencies =  1.000000000  (already applied!)

     0:       0.00 cm**-1
     1:       0.00 cm**-1
     2:       0.00 cm**-1
     3:       0.00 cm**-1
     4:       0.00 cm**-1
     5:       0.00 cm**-1
     6:  -10194.86 cm**-1  ***imaginary mode***
     7:   20253.61 cm**-1
     8:   20754.35 cm**-1

IR SPECTRUM
-----------

 Mode   freq       eps      Int      T**2         TX        TY        TZ
       cm**-1   L/(mol*cm) km/mol    a.u.
----------------------------------------------------------------------------
  7:  20253.61   0.000102    0.51  0.000002  (-0.000003  0.001253  0.000000)
  8:  20754.35   0.009300   47.00  0.000140  ( 0.011825  0.000000 -0.000000)

--------------------------
THERMOCHEMISTRY AT 298.15K
--------------------------

Temperature         ...   298.15 K
Pressure            ...     1.00 atm
Total Mass          ...    18.02 AMU
Quasi RRHO          ...     True
Cut-Off Frequency   ...     1.00 cm^-1

Throughout the following assumptions are being made:
  (1) The electronic state is orbitally nondegenerate
  (2) There are no thermally accessible electronically excited states
  (3) Hindered rotations indicated by low frequency modes are not
      treated as such but are treated as vibrations and this may
      cause some error
  (4) All equations used are the standard statistical mechanics
      equations for an ideal gas
  (5) All vibrations are strictly harmonic

freq.   20253.61  E(vib)   ...       0.00
freq.   20754.35  E(vib)   ...       0.00

------------
INNER ENERGY
------------

The inner energy is: U= E(el) + E(ZPE) + E(vib) + E(rot) + E(trans)
    E(el)   - is the total energy from the electronic structure calculation
              = E(kin-el) + E(nuc-el) + E(el-el) + E(nuc-nuc)
    E(ZPE)  - the the zero temperature vibrational energy from the frequency calculation
    E(vib)  - the the finite temperature correction to E(ZPE) due to population
              of excited vibrational states
    E(rot)  - is the rotational thermal energy
    E(trans)- is the translational thermal energy

Summary of contributions to the inner energy U:
Electronic energy                ...    -74.43752402 Eh
Zero point energy                ...      0.09342302 Eh      58.62 kcal/mol
Thermal vibrational correction   ...      0.00000000 Eh       0.00 kcal/mol
Thermal rotational correction    ...      0.00141627 Eh       0.89 kcal/mol
Thermal translational correction ...      0.00141627 Eh       0.89 kcal/mol
-----------------------------------------------------------------------
Total thermal energy                    -74.34126846 Eh

Summary of corrections to the electronic energy:
(perhaps to be used in another calculation)
Total thermal correction                  0.00283254 Eh       1.78 kcal/mol
Non-thermal (ZPE) correction              0.09342302 Eh      58.62 kcal/mol
-----------------------------------------------------------------------
Total correction                          0.09625556 Eh      60.40 kcal/mol

--------
ENTHALPY
--------

The enthalpy is H = U + kB*T
                kB is Boltzmann's constant
Total thermal energy              ...    -74.34126846 Eh
Thermal Enthalpy correction       ...      0.00094421 Eh       0.59 kcal/mol
-----------------------------------------------------------------------
Total Enthalpy                    ...    -74.34032425 Eh

Note: Rotational entropy computed according to Herzberg
Infrared and Raman Spectra, Chapter V,1, Van Nostrand Reinhold, 1945
Point Group:  C2v, Symmetry Number:   2
Rotational constants in cm-1:   105.439742    59.993159    38.237033

Vibrational entropy computed according to the QRRHO of S. Grimme
Chem.Eur.J. 2012 18 9955 using a reference frequency of 100.0 cm-1

-------
ENTROPY
-------

The entropy contributions are T*S = T*(S(el)+S(vib)+S(rot)+S(trans))
     S(el)   - electronic entropy
     S(vib)  - vibrational entropy
     S(rot)  - rotational entropy
     S(trans)- translational entropy
The entropies will be listed as multiplied by the temperature to get
units of energy

Electronic entropy                ...      0.00000000 Eh      0.00 kcal/mol
Vibrational entropy               ...     -0.00000000 Eh     -0.00 kcal/mol
Rotational entropy                ...      0.00300424 Eh      1.89 kcal/mol
Translational entropy             ...      0.01644380 Eh     10.32 kcal/mol
-----------------------------------------------------------------------
Final entropy term                ...      0.01944804 Eh     12.20 kcal/mol

In case the symmetry of your molecule has not been determined correctly
or in case you have a reason to use a different symmetry number we print
out the resulting rotational entropy values for sn=1,12:

 non-linear molecules -----------------------------------
|  sn= 1 | S(rot)=       0.00365869 Eh      2.30 kcal/mol|
|  sn= 2 | S(rot)=       0.00300424 Eh      1.89 kcal/mol|
|  sn= 3 | S(rot)=       0.00262141 Eh      1.64 kcal/mol|
|  sn= 4 | S(rot)=       0.00234978 Eh      1.47 kcal/mol|
|  sn= 5 | S(rot)=       0.00213909 Eh      1.34 kcal/mol|
|  sn= 6 | S(rot)=       0.00196695 Eh      1.23 kcal/mol|
|  sn= 7 | S(rot)=       0.00182140 Eh      1.14 kcal/mol|
|  sn= 8 | S(rot)=       0.00169533 Eh      1.06 kcal/mol|
|  sn= 9 | S(rot)=       0.00158412 Eh      0.99 kcal/mol|
|  sn=10 | S(rot)=       0.00148464 Eh      0.93 kcal/mol|
|  sn=11 | S(rot)=       0.00139465 Eh      0.88 kcal/mol|
|  sn=12 | S(rot)=       0.00131249 Eh      0.82 kcal/mol|
 linear molecules ---------------------------------------
|  Dinfh | S(rot)=       0.00188540 Eh      1.18 kcal/mol|
|  Cinfv | S(rot)=       0.00253985 Eh      1.59 kcal/mol|
 --------------------------------------------------------

-------------------
GIBBS FREE ENERGY
-------------------

The Gibbs free energy is G = H - T*S

Total enthalpy                    ...    -74.34032425 Eh
Total entropy correction          ...     -0.01944804 Eh    -12.20 kcal/mol
-----------------------------------------------------------------------
Final Gibbs free energy         ...    -74.35977229 Eh

For completeness - the Gibbs free energy minus the electronic energy
G-E(el)                           ...      0.07775173 Eh     48.79 kcal/mol

                             ****ORCA TERMINATED NORMALLY****
TOTAL RUN TIME: 0 days 0 hours 0 minutes 4 seconds 258 msec
