                         Program Version 6.0.1  -  RELEASE   -
|  1> ! B3LYP def2-SVP TightSCF Freq Engrad
|  2> * xyz 0 1
|  3>    N          0.0010127560         -0.0000810793          0.0826546768
|  4>    H          0.4604427334         -0.0000824685         -0.1181280266
|  5>    H         -0.2578733413          0.4483479240         -0.1422462028
|  6>    H         -0.2553113752         -0.4440605369         -0.1401239593
|  7> *
|  8> %elprop
|  9>  Polar 1
| 10> end
| 11>
| 12>                          ****END OF INPUT****

CARTESIAN COORDINATES (ANGSTROEM)
---------------------------------
  N      0.001013   -0.000081    0.082655
  H      0.460443   -0.000082   -0.118128
  H     -0.257873    0.448348   -0.142246
  H     -0.255311   -0.444061   -0.140124

 Total Charge           Charge          ....    0
 Multiplicity           Mult            ....    1
 Number of Electrons    NEL             ....   10
 Basis Dimension        Dim             ....   29

ORBITAL ENERGIES
----------------

  NO   OCC          E(Eh)            E(eV)
   0   2.0000     -14.249757      -387.7556
   1   2.0000      -1.106027       -30.0965
   2   2.0000      -0.636785       -17.3278
   3   2.0000      -0.626334       -17.0434
   4   2.0000      -0.284927        -7.7533
   5   0.0000       0.094177         2.5627
   6   0.0000       0.180867         4.9216
   7   0.0000       0.181268         4.9325
   8   0.0000       0.643768        17.5178
   9   0.0000       0.715585        19.4721

MULLIKEN ATOMIC CHARGES
-----------------------
   0 N :    0.948605
   1 H :   -0.388869
   2 H :   -0.274745
   3 H :   -0.284991
Sum of atomic charges:    0.0000000

LOEWDIN ATOMIC CHARGES
----------------------
   0 N :    0.416096
   1 H :   -0.201654
   2 H :   -0.103283
   3 H :   -0.111159

  Mayer bond orders larger than 0.100000
B(  0-N ,  1-H ) :   0.1856 B(  0-N ,  2-H ) :   0.3818 B(  0-N ,  3-H ) :   0.3670
B(  1-H ,  2-H ) :   0.2619 B(  1-H ,  3-H ) :   0.2658 B(  2-H ,  3-H ) :   0.2248

FINAL SINGLE POINT ENERGY       -54.532470819635

DIPOLE MOMENT
-------------

Method             : SCF
Type of density    : Electron Density
Multiplicity       :   1
Irrep              :   0
Energy             :   -54.5324708196354209 Eh
Relativity type    :
Basis              : AO
                                X                 Y                 Z
Electronic contribution:      0.030515642      -0.002464442      -0.229057977
Nuclear contribution   :     -0.043021592       0.003430726      -0.500138960
                        -----------------------------------------
Total Dipole Moment    :     -0.012505949       0.000966284      -0.729196938
                        -----------------------------------------
Magnitude (a.u.)       :      0.729304810
Magnitude (Debye)      :      1.853745508

VIBRATIONAL FREQUENCIES
-----------------------

Scaling factor for frequencies =  1.000000000  (already applied!)

     0:       0.00 cm**-1
     1:       0.00 cm**-1
     2:       0.00 cm**-1
     3:       0.00 cm**-1
     4:       0.00 cm**-1
     5:       0.00 cm**-1
     6:   -8435.94 cm**-1  ***imaginary mode***
     7:   -8160.90 cm**-1  ***imaginary mode***
     8:   -6684.49 cm**-1  ***imaginary mode***
     9:   14296.38 cm**-1
    10:   14836.46 cm**-1
    11:   18045.74 cm**-1

IR SPECTRUM
-----------

 Mode   freq       eps      Int      T**2         TX        TY        TZ
       cm**-1   L/(mol*cm) km/mol    a.u.
----------------------------------------------------------------------------
  9:  14296.38   0.002298   11.61  0.000050  ( 0.005454 -0.002933 -0.003435)
 10:  14836.46   0.005598   28.29  0.000118  (-0.001419 -0.010712  0.000996)
 11:  18045.74   0.005639   28.50  0.000098  ( 0.009539  0.000040  0.002554)

--------------------------
THERMOCHEMISTRY AT 298.15K
--------------------------

Temperature         ...   298.15 K
Pressure            ...     1.00 atm
Total Mass          ...    17.03 AMU
Quasi RRHO          ...     True
Cut-Off Frequency   ...     1.00 cm^-1

Throughout the following assumptions are being made:
  (1) The electronic state is orbitally nondegenerate
  (2) There are no thermally accessible electronically excited states
  (3) Hindered rotations indicated by low frequency modes are not
      treated as such but are treated as vibrations and this may
      cause some error
  (4) All equations used are the standard statistical mechanics
      equations for an ideal gas
  (5) All vibrations are strictly harmonic

freq.   14296.38  E(vib)   ...       0.00
freq.   14836.46  E(vib)   ...       0.00
freq.   18045.74  E(vib)   ...       0.00

------------
INNER ENERGY
------------

The inner energy is: U= E(el) + E(ZPE) + E(vib) + E(rot) + E(trans)
    E(el)   - is the total energy from the electronic structure calculation
              = E(kin-el) + E(nuc-el) + E(el-el) + E(nuc-nuc)
    E(ZPE)  - the the zero temperature vibrational energy from the frequency calculation
    E(vib)  - the the finite temperature correction to E(ZPE) due to population
              of excited vibrational states
    E(rot)  - is the rotational thermal energy
    E(trans)- is the translational thermal energy

Summary of contributions to the inner energy U:
Electronic energy                ...    -54.53247082 Eh
Zero point energy                ...      0.10748070 Eh      67.45 kcal/mol
Thermal vibrational correction   ...      0.00000000 Eh       0.00 kcal/mol
Thermal rotational correction    ...      0.00141627 Eh       0.89 kcal/mol
Thermal translational correction ...      0.00141627 Eh       0.89 kcal/mol
-----------------------------------------------------------------------
Total thermal energy                    -54.42215757 Eh

Summary of corrections to the electronic energy:
(perhaps to be used in another calculation)
Total thermal correction                  0.00283254 Eh       1.78 kcal/mol
Non-thermal (ZPE) correction              0.10748070 Eh      67.45 kcal/mol
-----------------------------------------------------------------------
Total correction                          0.11031325 Eh      69.22 kcal/mol

--------
ENTHALPY
--------

The enthalpy is H = U + kB*T
                kB is Boltzmann's constant
Total thermal energy              ...    -54.42215757 Eh
Thermal Enthalpy correction       ...      0.00094421 Eh       0.59 kcal/mol
-----------------------------------------------------------------------
Total Enthalpy                    ...    -54.42121337 Eh

Note: Only C1 symmetry has been detected, increase convergence thresholds
      if your molecule has a higher symmetry. Symmetry factor of 1.0 is
      used for the rotational entropy correction.

Note: Rotational entropy computed according to Herzberg
Infrared and Raman Spectra, Chapter V,1, Van Nostrand Reinhold, 1945
Point Group:  C1, Symmetry Number:   1
Rotational constants in cm-1:    36.424921    32.660870    22.486246

Vibrational entropy computed according to the QRRHO of S. Grimme
Chem.Eur.J. 2012 18 9955 using a reference frequency of 100.0 cm-1

-------
ENTROPY
-------

The entropy contributions are T*S = T*(S(el)+S(vib)+S(rot)+S(trans))
     S(el)   - electronic entropy
     S(vib)  - vibrational entropy
     S(rot)  - rotational entropy
     S(trans)- translational entropy
The entropies will be listed as multiplied by the temperature to get
units of energy

Electronic entropy                ...      0.00000000 Eh      0.00 kcal/mol
Vibrational entropy               ...     -0.00000000 Eh     -0.00 kcal/mol
Rotational entropy                ...      0.00469816 Eh      2.95 kcal/mol
Translational entropy             ...      0.01636425 Eh     10.27 kcal/mol
-----------------------------------------------------------------------
Final entropy term                ...      0.02106241 Eh     13.22 kcal/mol

In case the symmetry of your molecule has not been determined correctly
or in case you have a reason to use a different symmetry number we print
out the resulting rotational entropy values for sn=1,12:

 non-linear molecules -----------------------------------
|  sn= 1 | S(rot)=       0.00469816 Eh      2.95 kcal/mol|
|  sn= 2 | S(rot)=       0.00404371 Eh      2.54 kcal/mol|
|  sn= 3 | S(rot)=       0.00366087 Eh      2.30 kcal/mol|
|  sn= 4 | S(rot)=       0.00338925 Eh      2.13 kcal/mol|
|  sn= 5 | S(rot)=       0.00317856 Eh      1.99 kcal/mol|
|  sn= 6 | S(rot)=       0.00300642 Eh      1.89 kcal/mol|
|  sn= 7 | S(rot)=       0.00286087 Eh      1.80 kcal/mol|
|  sn= 8 | S(rot)=       0.00273479 Eh      1.72 kcal/mol|
|  sn= 9 | S(rot)=       0.00262358 Eh      1.65 kcal/mol|
|  sn=10 | S(rot)=       0.00252410 Eh      1.58 kcal/mol|
|  sn=11 | S(rot)=       0.00243411 Eh      1.53 kcal/mol|
|  sn=12 | S(rot)=       0.00235196 Eh      1.48 kcal/mol|
 linear molecules ---------------------------------------
|  Dinfh | S(rot)=       0.00238666 Eh      1.50 kcal/mol|
|  Cinfv | S(rot)=       0.00304112 Eh      1.91 kcal/mol|
 --------------------------------------------------------

-------------------
GIBBS FREE ENERGY
-------------------

The Gibbs free energy is G = H - T*S

Total enthalpy                    ...    -54.42121337 Eh
Total entropy correction          ...     -0.02106241 Eh    -13.22 kcal/mol
-----------------------------------------------------------------------
Final Gibbs free energy         ...    -54.44227578 Eh

For completeness - the Gibbs free energy minus the electronic energy
G-E(el)                           ...      0.09019504 Eh     56.60 kcal/mol

                             ****ORCA TERMINATED NORMALLY****
TOTAL RUN TIME: 0 days 0 hours 0 minutes 6 seconds 641 msec
