                         Program Version 6.0.1  -  RELEASE   -
|  1> ! B3LYP def2-SVP TightSCF Freq Engrad
|  2> * xyz 0 1
|  3>    N         -0.0010231254          0.0000810901          0.0826419384
|  4>    H          0.5320883837          0.0000824455         -0.1486451991
|  5>    H         -0.2383870494          0.4112172460         -0.1245218148
|  6>    H         -0.2409489819         -0.4155046210         -0.1266440657
|  7> *
|  8> %elprop
|  9>  Polar 1
| 10> end
| 11>
| 12>                          ****END OF INPUT****

CARTESIAN COORDINATES (ANGSTROEM)
---------------------------------
  N     -0.001023    0.000081    0.082642
  H      0.532088    0.000082   -0.148645
  H     -0.238387    0.411217   -0.124522
  H     -0.240949   -0.415505   -0.126644

 Total Charge           Charge          ....    0
 Multiplicity           Mult            ....    1
 Number of Electrons    NEL             ....   10
 Basis Dimension        Dim             ....   29

ORBITAL ENERGIES
----------------

  NO   OCC          E(Eh)            E(eV)
   0   2.0000     -14.249796      -387.7567
   1   2.0000      -1.106710       -30.1151
   2   2.0000      -0.637748       -17.3540
   3   2.0000      -0.626163       -17.0388
   4   2.0000      -0.285029        -7.7560
   5   0.0000       0.094158         2.5622
   6   0.0000       0.180767         4.9189
   7   0.0000       0.181302         4.9335
   8   0.0000       0.643538        17.5116
   9   0.0000       0.716601        19.4997

MULLIKEN ATOMIC CHARGES
-----------------------
   0 N :    0.952839
   1 H :   -0.243806
   2 H :   -0.359498
   3 H :   -0.349535
Sum of atomic charges:   -0.0000000

LOEWDIN ATOMIC CHARGES
----------------------
   0 N :    0.417511
   1 H :   -0.079975
   2 H :   -0.173261
   3 H :   -0.164275

  Mayer bond orders larger than 0.100000
B(  0-N ,  1-H ) :   0.4202 B(  0-N ,  2-H ) :   0.2389 B(  0-N ,  3-H ) :   0.2573
B(  1-H ,  2-H ) :   0.2401 B(  1-H ,  3-H ) :   0.2366 B(  2-H ,  3-H ) :   0.2801

FINAL SINGLE POINT ENERGY       -54.525213565399

DIPOLE MOMENT
-------------

Method             : SCF
Type of density    : Electron Density
Multiplicity       :   1
Irrep              :   0
Energy             :   -54.5252135653985235 Eh
Relativity type    :
Basis              : AO
                                X                 Y                 Z
Electronic contribution:     -0.030733072       0.002413977      -0.230065384
Nuclear contribution   :      0.043053582      -0.003430760      -0.499579540
                        -----------------------------------------
Total Dipole Moment    :      0.012320510      -0.001016783      -0.729644923
                        -----------------------------------------
Magnitude (a.u.)       :      0.729749644
Magnitude (Debye)      :      1.854876186

VIBRATIONAL FREQUENCIES
-----------------------

Scaling factor for frequencies =  1.000000000  (already applied!)

     0:       0.00 cm**-1
     1:       0.00 cm**-1
     2:       0.00 cm**-1
     3:       0.00 cm**-1
     4:       0.00 cm**-1
     5:       0.00 cm**-1
     6:   -8429.63 cm**-1  ***imaginary mode***
     7:   -7855.52 cm**-1  ***imaginary mode***
     8:   -7013.17 cm**-1  ***imaginary mode***
     9:   13626.06 cm**-1
    10:   16538.77 cm**-1
    11:   17114.60 cm**-1

IR SPECTRUM
-----------

 Mode   freq       eps      Int      T**2         TX        TY        TZ
       cm**-1   L/(mol*cm) km/mol    a.u.
----------------------------------------------------------------------------
  9:  13626.06   0.003442   17.40  0.000079  ( 0.008514 -0.000061  0.002518)
 10:  16538.77   0.003816   19.28  0.000072  (-0.007032 -0.003275  0.003438)
 11:  17114.60   0.006283   31.75  0.000115  (-0.002168  0.010421  0.001119)

--------------------------
THERMOCHEMISTRY AT 298.15K
--------------------------

Temperature         ...   298.15 K
Pressure            ...     1.00 atm
Total Mass          ...    17.03 AMU
Quasi RRHO          ...     True
Cut-Off Frequency   ...     1.00 cm^-1

Throughout the following assumptions are being made:
  (1) The electronic state is orbitally nondegenerate
  (2) There are no thermally accessible electronically excited states
  (3) Hindered rotations indicated by low frequency modes are not
      treated as such but are treated as vibrations and this may
      cause some error
  (4) All equations used are the standard statistical mechanics
      equations for an ideal gas
  (5) All vibrations are strictly harmonic

freq.   13626.06  E(vib)   ...       0.00
freq.   16538.77  E(vib)   ...       0.00
freq.   17114.60  E(vib)   ...       0.00

------------
INNER ENERGY
------------

The inner energy is: U= E(el) + E(ZPE) + E(vib) + E(rot) + E(trans)
    E(el)   - is the total energy from the electronic structure calculation
              = E(kin-el) + E(nuc-el) + E(el-el) + E(nuc-nuc)
    E(ZPE)  - the the zero temperature vibrational energy from the frequency calculation
    E(vib)  - the the finite temperature correction to E(ZPE) due to population
              of excited vibrational states
    E(rot)  - is the rotational thermal energy
    E(trans)- is the translational thermal energy

Summary of contributions to the inner energy U:
Electronic energy                ...    -54.52521357 Eh
Zero point energy                ...      0.10771048 Eh      67.59 kcal/mol
Thermal vibrational correction   ...      0.00000000 Eh       0.00 kcal/mol
Thermal rotational correction    ...      0.00141627 Eh       0.89 kcal/mol
Thermal translational correction ...      0.00141627 Eh       0.89 kcal/mol
-----------------------------------------------------------------------
Total thermal energy                    -54.41467054 Eh

Summary of corrections to the electronic energy:
(perhaps to be used in another calculation)
Total thermal correction                  0.00283254 Eh       1.78 kcal/mol
Non-thermal (ZPE) correction              0.10771048 Eh      67.59 kcal/mol
-----------------------------------------------------------------------
Total correction                          0.11054303 Eh      69.37 kcal/mol

--------
ENTHALPY
--------

The enthalpy is H = U + kB*T
                kB is Boltzmann's constant
Total thermal energy              ...    -54.41467054 Eh
Thermal Enthalpy correction       ...      0.00094421 Eh       0.59 kcal/mol
-----------------------------------------------------------------------
Total Enthalpy                    ...    -54.41372633 Eh

Note: Only C1 symmetry has been detected, increase convergence thresholds
      if your molecule has a higher symmetry. Symmetry factor of 1.0 is
      used for the rotational entropy correction.

Note: Rotational entropy computed according to Herzberg
Infrared and Raman Spectra, Chapter V,1, Van Nostrand Reinhold, 1945
Point Group:  C1, Symmetry Number:   1
Rotational constants in cm-1:    36.724702    32.577008    22.558492

Vibrational entropy computed according to the QRRHO of S. Grimme
Chem.Eur.J. 2012 18 9955 using a reference frequency of 100.0 cm-1

-------
ENTROPY
-------

The entropy contributions are T*S = T*(S(el)+S(vib)+S(rot)+S(trans))
     S(el)   - electronic entropy
     S(vib)  - vibrational entropy
     S(rot)  - rotational entropy
     S(trans)- translational entropy
The entropies will be listed as multiplied by the temperature to get
units of energy

Electronic entropy                ...      0.00000000 Eh      0.00 kcal/mol
Vibrational entropy               ...     -0.00000000 Eh     -0.00 kcal/mol
Rotational entropy                ...      0.00469399 Eh      2.95 kcal/mol
Translational entropy             ...      0.01636425 Eh     10.27 kcal/mol
-----------------------------------------------------------------------
Final entropy term                ...      0.02105824 Eh     13.21 kcal/mol

In case the symmetry of your molecule has not been determined correctly
or in case you have a reason to use a different symmetry number we print
out the resulting rotational entropy values for sn=1,12:

 non-linear molecules -----------------------------------
|  sn= 1 | S(rot)=       0.00469399 Eh      2.95 kcal/mol|
|  sn= 2 | S(rot)=       0.00403954 Eh      2.53 kcal/mol|
|  sn= 3 | S(rot)=       0.00365670 Eh      2.29 kcal/mol|
|  sn= 4 | S(rot)=       0.00338508 Eh      2.12 kcal/mol|
|  sn= 5 | S(rot)=       0.00317439 Eh      1.99 kcal/mol|
|  sn= 6 | S(rot)=       0.00300225 Eh      1.88 kcal/mol|
|  sn= 7 | S(rot)=       0.00285670 Eh      1.79 kcal/mol|
|  sn= 8 | S(rot)=       0.00273062 Eh      1.71 kcal/mol|
|  sn= 9 | S(rot)=       0.00261941 Eh      1.64 kcal/mol|
|  sn=10 | S(rot)=       0.00251993 Eh      1.58 kcal/mol|
|  sn=11 | S(rot)=       0.00242994 Eh      1.52 kcal/mol|
|  sn=12 | S(rot)=       0.00234779 Eh      1.47 kcal/mol|
 linear molecules ---------------------------------------
|  Dinfh | S(rot)=       0.00238363 Eh      1.50 kcal/mol|
|  Cinfv | S(rot)=       0.00303809 Eh      1.91 kcal/mol|
 --------------------------------------------------------

-------------------
GIBBS FREE ENERGY
-------------------

The Gibbs free energy is G = H - T*S

Total enthalpy                    ...    -54.41372633 Eh
Total entropy correction          ...     -0.02105824 Eh    -13.21 kcal/mol
-----------------------------------------------------------------------
Final Gibbs free energy         ...    -54.43478457 Eh

For completeness - the Gibbs free energy minus the electronic energy
G-E(el)                           ...      0.09042899 Eh     56.74 kcal/mol

                             ****ORCA TERMINATED NORMALLY****
TOTAL RUN TIME: 0 days 0 hours 0 minutes 6 seconds 643 msec
