                         Program Version 6.0.1  -  RELEASE   -
|  1> ! B3LYP def2-SVP TightSCF Freq Engrad
|  2> * xyz 0 1
|  3>    O          0.0008111146         -0.0075480266          0.0000000000
|  4>    H          0.3750230025          0.2903387544         -0.0000001411
|  5>    H         -0.4263081609          0.3310566884          0.0000000554
|  6> *
|  7> %elprop
|  8>  Polar 1
|  9> end
| 10>
| 11>                          ****END OF INPUT****

CARTESIAN COORDINATES (ANGSTROEM)
---------------------------------
  O      0.000811   -0.007548    0.000000
  H      0.375023    0.290339   -0.000000
  H     -0.426308    0.331057    0.000000

 Total Charge           Charge          ....    0
 Multiplicity           Mult            ....    1
 Number of Electrons    NEL             ....   10
 Basis Dimension        Dim             ....   24

ORBITAL ENERGIES
----------------

  NO   OCC          E(Eh)            E(eV)
   0   2.0000     -19.097394      -519.6665
   1   2.0000      -1.285532       -34.9811
   2   2.0000      -0.745922       -20.2976
   3   2.0000      -0.420648       -11.4464
   4   2.0000      -0.348517        -9.4836
   5   0.0000       0.103350         2.8123
   6   0.0000       0.180613         4.9147
   7   0.0000       0.768029        20.8991
   8   0.0000       0.810289        22.0491
   9   0.0000       0.892950        24.2984

MULLIKEN ATOMIC CHARGES
-----------------------
   0 O :    0.414043
   1 H :   -0.268625
   2 H :   -0.145418
Sum of atomic charges:   -0.0000000

LOEWDIN ATOMIC CHARGES
----------------------
   0 O :    0.560115
   1 H :   -0.346153
   2 H :   -0.213962

  Mayer bond orders larger than 0.100000
B(  0-O ,  1-H ) :   0.9160 B(  0-O ,  2-H ) :   0.9555 B(  1-H ,  2-H ) :   0.1478

FINAL SINGLE POINT ENERGY       -74.827550728973

DIPOLE MOMENT
-------------

Method             : SCF
Type of density    : Electron Density
Multiplicity       :   1
Irrep              :   0
Energy             :   -74.8275507289731934 Eh
Relativity type    :
Basis              : AO
                                X                 Y                 Z
Electronic contribution:      0.025835868       0.141211155      -0.000000027
Nuclear contribution   :     -0.044038027       0.529790467      -0.000000071
                        -----------------------------------------
Total Dipole Moment    :     -0.018202159       0.671001622      -0.000000099
                        -----------------------------------------
Magnitude (a.u.)       :      0.671248460
Magnitude (Debye)      :      1.706177993

VIBRATIONAL FREQUENCIES
-----------------------

Scaling factor for frequencies =  1.000000000  (already applied!)

     0:       0.00 cm**-1
     1:       0.00 cm**-1
     2:       0.00 cm**-1
     3:       0.00 cm**-1
     4:       0.00 cm**-1
     5:       0.00 cm**-1
     6:   -9115.87 cm**-1  ***imaginary mode***
     7:   16038.66 cm**-1
     8:   20548.91 cm**-1

IR SPECTRUM
-----------

 Mode   freq       eps      Int      T**2         TX        TY        TZ
       cm**-1   L/(mol*cm) km/mol    a.u.
----------------------------------------------------------------------------
  7:  16038.66   0.005746   29.04  0.000112  ( 0.010129 -0.003031 -0.000000)
  8:  20548.91   0.005179   26.17  0.000079  (-0.008862 -0.000318  0.000000)

--------------------------
THERMOCHEMISTRY AT 298.15K
--------------------------

Temperature         ...   298.15 K
Pressure            ...     1.00 atm
Total Mass          ...    18.02 AMU
Quasi RRHO          ...     True
Cut-Off Frequency   ...     1.00 cm^-1

Throughout the following assumptions are being made:
  (1) The electronic state is orbitally nondegenerate
  (2) There are no thermally accessible electronically excited states
  (3) Hindered rotations indicated by low frequency modes are not
      treated as such but are treated as vibrations and this may
      cause some error
  (4) All equations used are the standard statistical mechanics
      equations for an ideal gas
  (5) All vibrations are strictly harmonic

freq.   16038.66  E(vib)   ...       0.00
freq.   20548.91  E(vib)   ...       0.00

------------
INNER ENERGY
------------

The inner energy is: U= E(el) + E(ZPE) + E(vib) + E(rot) + E(trans)
    E(el)   - is the total energy from the electronic structure calculation
              = E(kin-el) + E(nuc-el) + E(el-el) + E(nuc-nuc)
    E(ZPE)  - the the zero temperature vibrational energy from the frequency calculation
    E(vib)  - the the finite temperature correction to E(ZPE) due to population
              of excited vibrational states
    E(rot)  - is the rotational thermal energy
    E(trans)- is the translational thermal energy

Summary of contributions to the inner energy U:
Electronic energy                ...    -74.82755073 Eh
Zero point energy                ...      0.08335262 Eh      52.30 kcal/mol
Thermal vibrational correction   ...      0.00000000 Eh       0.00 kcal/mol
Thermal rotational correction    ...      0.00141627 Eh       0.89 kcal/mol
Thermal translational correction ...      0.00141627 Eh       0.89 kcal/mol
-----------------------------------------------------------------------
Total thermal energy                    -74.74136557 Eh

Summary of corrections to the electronic energy:
(perhaps to be used in another calculation)
Total thermal correction                  0.00283254 Eh       1.78 kcal/mol
Non-thermal (ZPE) correction              0.08335262 Eh      52.30 kcal/mol
-----------------------------------------------------------------------
Total correction                          0.08618516 Eh      54.08 kcal/mol

--------
ENTHALPY
--------

The enthalpy is H = U + kB*T
                kB is Boltzmann's constant
Total thermal energy              ...    -74.74136557 Eh
Thermal Enthalpy correction       ...      0.00094421 Eh       0.59 kcal/mol
-----------------------------------------------------------------------
Total Enthalpy                    ...    -74.74042136 Eh

Note: Rotational entropy computed according to Herzberg
Infrared and Raman Spectra, Chapter V,1, Van Nostrand Reinhold, 1945
Point Group:  Cs, Symmetry Number:   1
Rotational constants in cm-1:    96.045557    50.846851    33.246199

Vibrational entropy computed according to the QRRHO of S. Grimme
Chem.Eur.J. 2012 18 9955 using a reference frequency of 100.0 cm-1

-------
ENTROPY
-------

The entropy contributions are T*S = T*(S(el)+S(vib)+S(rot)+S(trans))
     S(el)   - electronic entropy
     S(vib)  - vibrational entropy
     S(rot)  - rotational entropy
     S(trans)- translational entropy
The entropies will be listed as multiplied by the temperature to get
units of energy

Electronic entropy                ...      0.00000000 Eh      0.00 kcal/mol
Vibrational entropy               ...     -0.00000000 Eh     -0.00 kcal/mol
Rotational entropy                ...      0.00384687 Eh      2.41 kcal/mol
Translational entropy             ...      0.01644380 Eh     10.32 kcal/mol
-----------------------------------------------------------------------
Final entropy term                ...      0.02029067 Eh     12.73 kcal/mol

In case the symmetry of your molecule has not been determined correctly
or in case you have a reason to use a different symmetry number we print
out the resulting rotational entropy values for sn=1,12:

 non-linear molecules -----------------------------------
|  sn= 1 | S(rot)=       0.00384687 Eh      2.41 kcal/mol|
|  sn= 2 | S(rot)=       0.00319241 Eh      2.00 kcal/mol|
|  sn= 3 | S(rot)=       0.00280958 Eh      1.76 kcal/mol|
|  sn= 4 | S(rot)=       0.00253795 Eh      1.59 kcal/mol|
|  sn= 5 | S(rot)=       0.00232727 Eh      1.46 kcal/mol|
|  sn= 6 | S(rot)=       0.00215512 Eh      1.35 kcal/mol|
|  sn= 7 | S(rot)=       0.00200958 Eh      1.26 kcal/mol|
|  sn= 8 | S(rot)=       0.00188350 Eh      1.18 kcal/mol|
|  sn= 9 | S(rot)=       0.00177229 Eh      1.11 kcal/mol|
|  sn=10 | S(rot)=       0.00167281 Eh      1.05 kcal/mol|
|  sn=11 | S(rot)=       0.00158282 Eh      0.99 kcal/mol|
|  sn=12 | S(rot)=       0.00150066 Eh      0.94 kcal/mol|
 linear molecules ---------------------------------------
|  Dinfh | S(rot)=       0.00201745 Eh      1.27 kcal/mol|
|  Cinfv | S(rot)=       0.00267191 Eh      1.68 kcal/mol|
 --------------------------------------------------------

-------------------
GIBBS FREE ENERGY
-------------------

The Gibbs free energy is G = H - T*S

Total enthalpy                    ...    -74.74042136 Eh
Total entropy correction          ...     -0.02029067 Eh    -12.73 kcal/mol
-----------------------------------------------------------------------
Final Gibbs free energy         ...    -74.76071203 Eh

For completeness - the Gibbs free energy minus the electronic energy
G-E(el)                           ...      0.06683870 Eh     41.94 kcal/mol

                             ****ORCA TERMINATED NORMALLY****
TOTAL RUN TIME: 0 days 0 hours 0 minutes 4 seconds 263 msec
