                         Program Version 6.0.1  -  RELEASE   -
|  1> ! B3LYP def2-SVP TightSCF Freq Engrad
|  2> * xyz 0 1
|  3>    N          0.0012017311          0.0002725237          0.0826471785
|  4>    H          0.5069249344         -0.0118010084         -0.1152029612
|  5>    H         -0.2909363455          0.4013747737         -0.1389066152
|  6>    H         -0.2786782777         -0.4036862448         -0.1460072451
|  7> *
|  8> %elprop
|  9>  Polar 1
| 10> end
| 11>
| 12>                          ****END OF INPUT****

CARTESIAN COORDINATES (ANGSTROEM)
---------------------------------
  N      0.001202    0.000273    0.082647
  H      0.506925   -0.011801   -0.115203
  H     -0.290936    0.401375   -0.138907
  H     -0.278678   -0.403686   -0.146007

 Total Charge           Charge          ....    0
 Multiplicity           Mult            ....    1
 Number of Electrons    NEL             ....   10
 Basis Dimension        Dim             ....   29

ORBITAL ENERGIES
----------------

  NO   OCC          E(Eh)            E(eV)
   0   2.0000     -14.245030      -387.6270
   1   2.0000      -1.109448       -30.1896
   2   2.0000      -0.667461       -18.1625
   3   2.0000      -0.593612       -16.1530
   4   2.0000      -0.284725        -7.7478
   5   0.0000       0.093778         2.5518
   6   0.0000       0.176542         4.8039
   7   0.0000       0.186267         5.0686
   8   0.0000       0.645776        17.5725
   9   0.0000       0.702419        19.1138

MULLIKEN ATOMIC CHARGES
-----------------------
   0 N :    0.935934
   1 H :   -0.343795
   2 H :   -0.300404
   3 H :   -0.291735
Sum of atomic charges:    0.0000000

LOEWDIN ATOMIC CHARGES
----------------------
   0 N :    0.413560
   1 H :   -0.142870
   2 H :   -0.135551
   3 H :   -0.135139

  Mayer bond orders larger than 0.100000
B(  0-N ,  1-H ) :   0.3377 B(  0-N ,  2-H ) :   0.3352 B(  0-N ,  3-H ) :   0.3261
B(  1-H ,  2-H ) :   0.2479 B(  1-H ,  3-H ) :   0.2505 B(  2-H ,  3-H ) :   0.2456

FINAL SINGLE POINT ENERGY       -54.585466579232

DIPOLE MOMENT
-------------

Method             : SCF
Type of density    : Electron Density
Multiplicity       :   1
Irrep              :   0
Energy             :   -54.5854665792323885 Eh
Relativity type    :
Basis              : AO
                                X                 Y                 Z
Electronic contribution:      0.024325098       0.004847909      -0.225705975
Nuclear contribution   :     -0.051131203      -0.011515089      -0.499827474
                        -----------------------------------------
Total Dipole Moment    :     -0.026806105      -0.006667180      -0.725533449
                        -----------------------------------------
Magnitude (a.u.)       :      0.726059091
Magnitude (Debye)      :      1.845495546

VIBRATIONAL FREQUENCIES
-----------------------

Scaling factor for frequencies =  1.000000000  (already applied!)

     0:       0.00 cm**-1
     1:       0.00 cm**-1
     2:       0.00 cm**-1
     3:       0.00 cm**-1
     4:       0.00 cm**-1
     5:       0.00 cm**-1
     6:   -8066.84 cm**-1  ***imaginary mode***
     7:   -7402.21 cm**-1  ***imaginary mode***
     8:   -7045.79 cm**-1  ***imaginary mode***
     9:   15092.74 cm**-1
    10:   15719.84 cm**-1
    11:   15867.95 cm**-1

IR SPECTRUM
-----------

 Mode   freq       eps      Int      T**2         TX        TY        TZ
       cm**-1   L/(mol*cm) km/mol    a.u.
----------------------------------------------------------------------------
  9:  15092.74   0.001012    5.11  0.000021  ( 0.001313  0.000681  0.004328)
 10:  15719.84   0.004814   24.33  0.000096  ( 0.001187 -0.009702  0.000179)
 11:  15867.95   0.007486   37.83  0.000147  ( 0.012129  0.000338  0.000117)

--------------------------
THERMOCHEMISTRY AT 298.15K
--------------------------

Temperature         ...   298.15 K
Pressure            ...     1.00 atm
Total Mass          ...    17.03 AMU
Quasi RRHO          ...     True
Cut-Off Frequency   ...     1.00 cm^-1

Throughout the following assumptions are being made:
  (1) The electronic state is orbitally nondegenerate
  (2) There are no thermally accessible electronically excited states
  (3) Hindered rotations indicated by low frequency modes are not
      treated as such but are treated as vibrations and this may
      cause some error
  (4) All equations used are the standard statistical mechanics
      equations for an ideal gas
  (5) All vibrations are strictly harmonic

freq.   15092.74  E(vib)   ...       0.00
freq.   15719.84  E(vib)   ...       0.00
freq.   15867.95  E(vib)   ...       0.00

------------
INNER ENERGY
------------

The inner energy is: U= E(el) + E(ZPE) + E(vib) + E(rot) + E(trans)
    E(el)   - is the total energy from the electronic structure calculation
              = E(kin-el) + E(nuc-el) + E(el-el) + E(nuc-nuc)
    E(ZPE)  - the the zero temperature vibrational energy from the frequency calculation
    E(vib)  - the the finite temperature correction to E(ZPE) due to population
              of excited vibrational states
    E(rot)  - is the rotational thermal energy
    E(trans)- is the translational thermal energy

Summary of contributions to the inner energy U:
Electronic energy                ...    -54.58546658 Eh
Zero point energy                ...      0.10634604 Eh      66.73 kcal/mol
Thermal vibrational correction   ...      0.00000000 Eh       0.00 kcal/mol
Thermal rotational correction    ...      0.00141627 Eh       0.89 kcal/mol
Thermal translational correction ...      0.00141627 Eh       0.89 kcal/mol
-----------------------------------------------------------------------
Total thermal energy                    -54.47628799 Eh

Summary of corrections to the electronic energy:
(perhaps to be used in another calculation)
Total thermal correction                  0.00283254 Eh       1.78 kcal/mol
Non-thermal (ZPE) correction              0.10634604 Eh      66.73 kcal/mol
-----------------------------------------------------------------------
Total correction                          0.10917859 Eh      68.51 kcal/mol

--------
ENTHALPY
--------

The enthalpy is H = U + kB*T
                kB is Boltzmann's constant
Total thermal energy              ...    -54.47628799 Eh
Thermal Enthalpy correction       ...      0.00094421 Eh       0.59 kcal/mol
-----------------------------------------------------------------------
Total Enthalpy                    ...    -54.47534378 Eh

Note: Only C1 symmetry has been detected, increase convergence thresholds
      if your molecule has a higher symmetry. Symmetry factor of 1.0 is
      used for the rotational entropy correction.

Note: Rotational entropy computed according to Herzberg
Infrared and Raman Spectra, Chapter V,1, Van Nostrand Reinhold, 1945
Point Group:  C1, Symmetry Number:   1
Rotational constants in cm-1:    38.300738    31.222962    22.424531

Vibrational entropy computed according to the QRRHO of S. Grimme
Chem.Eur.J. 2012 18 9955 using a reference frequency of 100.0 cm-1

-------
ENTROPY
-------

The entropy contributions are T*S = T*(S(el)+S(vib)+S(rot)+S(trans))
     S(el)   - electronic entropy
     S(vib)  - vibrational entropy
     S(rot)  - rotational entropy
     S(trans)- translational entropy
The entropies will be listed as multiplied by the temperature to get
units of energy

Electronic entropy                ...      0.00000000 Eh      0.00 kcal/mol
Vibrational entropy               ...     -0.00000000 Eh     -0.00 kcal/mol
Rotational entropy                ...      0.00469701 Eh      2.95 kcal/mol
Translational entropy             ...      0.01636425 Eh     10.27 kcal/mol
-----------------------------------------------------------------------
Final entropy term                ...      0.02106126 Eh     13.22 kcal/mol

In case the symmetry of your molecule has not been determined correctly
or in case you have a reason to use a different symmetry number we print
out the resulting rotational entropy values for sn=1,12:

 non-linear molecules -----------------------------------
|  sn= 1 | S(rot)=       0.00469701 Eh      2.95 kcal/mol|
|  sn= 2 | S(rot)=       0.00404255 Eh      2.54 kcal/mol|
|  sn= 3 | S(rot)=       0.00365972 Eh      2.30 kcal/mol|
|  sn= 4 | S(rot)=       0.00338810 Eh      2.13 kcal/mol|
|  sn= 5 | S(rot)=       0.00317741 Eh      1.99 kcal/mol|
|  sn= 6 | S(rot)=       0.00300526 Eh      1.89 kcal/mol|
|  sn= 7 | S(rot)=       0.00285972 Eh      1.79 kcal/mol|
|  sn= 8 | S(rot)=       0.00273364 Eh      1.72 kcal/mol|
|  sn= 9 | S(rot)=       0.00262243 Eh      1.65 kcal/mol|
|  sn=10 | S(rot)=       0.00252295 Eh      1.58 kcal/mol|
|  sn=11 | S(rot)=       0.00243296 Eh      1.53 kcal/mol|
|  sn=12 | S(rot)=       0.00235081 Eh      1.48 kcal/mol|
 linear molecules ---------------------------------------
|  Dinfh | S(rot)=       0.00238926 Eh      1.50 kcal/mol|
|  Cinfv | S(rot)=       0.00304371 Eh      1.91 kcal/mol|
 --------------------------------------------------------

-------------------
GIBBS FREE ENERGY
-------------------

The Gibbs free energy is G = H - T*S

Total enthalpy                    ...    -54.47534378 Eh
Total entropy correction          ...     -0.02106126 Eh    -13.22 kcal/mol
-----------------------------------------------------------------------
Final Gibbs free energy         ...    -54.49640504 Eh

For completeness - the Gibbs free energy minus the electronic energy
G-E(el)                           ...      0.08906154 Eh     55.89 kcal/mol

                             ****ORCA TERMINATED NORMALLY****
TOTAL RUN TIME: 0 days 0 hours 0 minutes 6 seconds 663 msec
