                         Program Version 6.0.1  -  RELEASE   -
|  1> ! B3LYP def2-SVP TightSCF Freq Engrad
|  2> * xyz 0 1
|  3>    N         -0.0000095833          0.0000001970          0.0799420688
|  4>    H          0.5159019806         -0.0000398668         -0.0865390304
|  5>    H         -0.2579310767          0.4468389674         -0.0863963950
|  6>    H         -0.2579686460         -0.4468054420         -0.0864040458
|  7> *
|  8> %elprop
|  9>  Polar 1
| 10> end
| 11>
| 12>                          ****END OF INPUT****

CARTESIAN COORDINATES (ANGSTROEM)
---------------------------------
  N     -0.000010    0.000000    0.079942
  H      0.515902   -0.000040   -0.086539
  H     -0.257931    0.446839   -0.086396
  H     -0.257969   -0.446805   -0.086404

 Total Charge           Charge          ....    0
 Multiplicity           Mult            ....    1
 Number of Electrons    NEL             ....   10
 Basis Dimension        Dim             ....   29

ORBITAL ENERGIES
----------------

  NO   OCC          E(Eh)            E(eV)
   0   2.0000     -14.245643      -387.6437
   1   2.0000      -1.072674       -29.1889
   2   2.0000      -0.646572       -17.5941
   3   2.0000      -0.646512       -17.5925
   4   2.0000      -0.275387        -7.4937
   5   0.0000       0.099754         2.7144
   6   0.0000       0.180871         4.9217
   7   0.0000       0.180879         4.9220
   8   0.0000       0.654323        17.8050
   9   0.0000       0.728365        19.8198

MULLIKEN ATOMIC CHARGES
-----------------------
   0 N :    1.088352
   1 H :   -0.362563
   2 H :   -0.362892
   3 H :   -0.362896
Sum of atomic charges:    0.0000000

LOEWDIN ATOMIC CHARGES
----------------------
   0 N :    0.425023
   1 H :   -0.141604
   2 H :   -0.141705
   3 H :   -0.141713

  Mayer bond orders larger than 0.100000
B(  0-N ,  1-H ) :   0.2764 B(  0-N ,  2-H ) :   0.2762 B(  0-N ,  3-H ) :   0.2762
B(  1-H ,  2-H ) :   0.2774 B(  1-H ,  3-H ) :   0.2774 B(  2-H ,  3-H ) :   0.2775

FINAL SINGLE POINT ENERGY       -54.589241691170

DIPOLE MOMENT
-------------

Method             : SCF
Type of density    : Electron Density
Multiplicity       :   1
Irrep              :   0
Energy             :   -54.5892416911699883 Eh
Relativity type    :
Basis              : AO
                                X                 Y                 Z
Electronic contribution:     -0.000016022       0.000002151      -0.198336122
Nuclear contribution   :      0.000023915      -0.000005347      -0.384991131
                        -----------------------------------------
Total Dipole Moment    :      0.000007893      -0.000003195      -0.583327253
                        -----------------------------------------
Magnitude (a.u.)       :      0.583327253
Magnitude (Debye)      :      1.482700044

VIBRATIONAL FREQUENCIES
-----------------------

Scaling factor for frequencies =  1.000000000  (already applied!)

     0:       0.00 cm**-1
     1:       0.00 cm**-1
     2:       0.00 cm**-1
     3:       0.00 cm**-1
     4:       0.00 cm**-1
     5:       0.00 cm**-1
     6:   -8359.94 cm**-1  ***imaginary mode***
     7:   -7444.22 cm**-1  ***imaginary mode***
     8:   -7443.00 cm**-1  ***imaginary mode***
     9:   15058.32 cm**-1
    10:   15885.50 cm**-1
    11:   15886.91 cm**-1

IR SPECTRUM
-----------

 Mode   freq       eps      Int      T**2         TX        TY        TZ
       cm**-1   L/(mol*cm) km/mol    a.u.
----------------------------------------------------------------------------
  9:  15058.32   0.000620    3.13  0.000013  (-0.000004 -0.000002 -0.003584)
 10:  15885.50   0.005956   30.10  0.000117  (-0.010791  0.000749 -0.000023)
 11:  15886.91   0.005959   30.11  0.000117  (-0.000748 -0.010793 -0.000001)

--------------------------
THERMOCHEMISTRY AT 298.15K
--------------------------

Temperature         ...   298.15 K
Pressure            ...     1.00 atm
Total Mass          ...    17.03 AMU
Quasi RRHO          ...     True
Cut-Off Frequency   ...     1.00 cm^-1

Throughout the following assumptions are being made:
  (1) The electronic state is orbitally nondegenerate
  (2) There are no thermally accessible electronically excited states
  (3) Hindered rotations indicated by low frequency modes are not
      treated as such but are treated as vibrations and this may
      cause some error
  (4) All equations used are the standard statistical mechanics
      equations for an ideal gas
  (5) All vibrations are strictly harmonic

freq.   15058.32  E(vib)   ...       0.00
freq.   15885.50  E(vib)   ...       0.00
freq.   15886.91  E(vib)   ...       0.00

------------
INNER ENERGY
------------

The inner energy is: U= E(el) + E(ZPE) + E(vib) + E(rot) + E(trans)
    E(el)   - is the total energy from the electronic structure calculation
              = E(kin-el) + E(nuc-el) + E(el-el) + E(nuc-nuc)
    E(ZPE)  - the the zero temperature vibrational energy from the frequency calculation
    E(vib)  - the the finite temperature correction to E(ZPE) due to population
              of excited vibrational states
    E(rot)  - is the rotational thermal energy
    E(trans)- is the translational thermal energy

Summary of contributions to the inner energy U:
Electronic energy                ...    -54.58924169 Eh
Zero point energy                ...      0.10668826 Eh      66.95 kcal/mol
Thermal vibrational correction   ...      0.00000000 Eh       0.00 kcal/mol
Thermal rotational correction    ...      0.00141627 Eh       0.89 kcal/mol
Thermal translational correction ...      0.00141627 Eh       0.89 kcal/mol
-----------------------------------------------------------------------
Total thermal energy                    -54.47972089 Eh

Summary of corrections to the electronic energy:
(perhaps to be used in another calculation)
Total thermal correction                  0.00283254 Eh       1.78 kcal/mol
Non-thermal (ZPE) correction              0.10668826 Eh      66.95 kcal/mol
-----------------------------------------------------------------------
Total correction                          0.10952080 Eh      68.73 kcal/mol

--------
ENTHALPY
--------

The enthalpy is H = U + kB*T
                kB is Boltzmann's constant
Total thermal energy              ...    -54.47972089 Eh
Thermal Enthalpy correction       ...      0.00094421 Eh       0.59 kcal/mol
-----------------------------------------------------------------------
Total Enthalpy                    ...    -54.47877668 Eh

Note: Rotational entropy computed according to Herzberg
Infrared and Raman Spectra, Chapter V,1, Van Nostrand Reinhold, 1945
Point Group:  C3v, Symmetry Number:   3
Rotational constants in cm-1:    35.770103    35.764490    20.943267

Vibrational entropy computed according to the QRRHO of S. Grimme
Chem.Eur.J. 2012 18 9955 using a reference frequency of 100.0 cm-1

-------
ENTROPY
-------

The entropy contributions are T*S = T*(S(el)+S(vib)+S(rot)+S(trans))
     S(el)   - electronic entropy
     S(vib)  - vibrational entropy
     S(rot)  - rotational entropy
     S(trans)- translational entropy
The entropies will be listed as multiplied by the temperature to get
units of energy

Electronic entropy                ...      0.00000000 Eh      0.00 kcal/mol
Vibrational entropy               ...     -0.00000000 Eh     -0.00 kcal/mol
Rotational entropy                ...      0.00366014 Eh      2.30 kcal/mol
Translational entropy             ...      0.01636425 Eh     10.27 kcal/mol
-----------------------------------------------------------------------
Final entropy term                ...      0.02002439 Eh     12.57 kcal/mol

In case the symmetry of your molecule has not been determined correctly
or in case you have a reason to use a different symmetry number we print
out the resulting rotational entropy values for sn=1,12:

 non-linear molecules -----------------------------------
|  sn= 1 | S(rot)=       0.00469743 Eh      2.95 kcal/mol|
|  sn= 2 | S(rot)=       0.00404297 Eh      2.54 kcal/mol|
|  sn= 3 | S(rot)=       0.00366014 Eh      2.30 kcal/mol|
|  sn= 4 | S(rot)=       0.00338852 Eh      2.13 kcal/mol|
|  sn= 5 | S(rot)=       0.00317783 Eh      1.99 kcal/mol|
|  sn= 6 | S(rot)=       0.00300568 Eh      1.89 kcal/mol|
|  sn= 7 | S(rot)=       0.00286014 Eh      1.79 kcal/mol|
|  sn= 8 | S(rot)=       0.00273406 Eh      1.72 kcal/mol|
|  sn= 9 | S(rot)=       0.00262285 Eh      1.65 kcal/mol|
|  sn=10 | S(rot)=       0.00252337 Eh      1.58 kcal/mol|
|  sn=11 | S(rot)=       0.00243338 Eh      1.53 kcal/mol|
|  sn=12 | S(rot)=       0.00235123 Eh      1.48 kcal/mol|
 linear molecules ---------------------------------------
|  Dinfh | S(rot)=       0.00245378 Eh      1.54 kcal/mol|
|  Cinfv | S(rot)=       0.00310824 Eh      1.95 kcal/mol|
 --------------------------------------------------------

-------------------
GIBBS FREE ENERGY
-------------------

The Gibbs free energy is G = H - T*S

Total enthalpy                    ...    -54.47877668 Eh
Total entropy correction          ...     -0.02002439 Eh    -12.57 kcal/mol
-----------------------------------------------------------------------
Final Gibbs free energy         ...    -54.49880108 Eh

For completeness - the Gibbs free energy minus the electronic energy
G-E(el)                           ...      0.09044062 Eh     56.75 kcal/mol

                             ****ORCA TERMINATED NORMALLY****
TOTAL RUN TIME: 0 days 0 hours 0 minutes 6 seconds 800 msec
