                         Program Version 6.0.1  -  RELEASE   -
|  1> ! B3LYP def2-SVP TightSCF Freq Engrad
|  2> * xyz 0 1
|  3>    O         -0.0000000181         -0.0062877308          0.0000000004
|  4>    H          0.4315531645          0.2708702110         -0.0000000913
|  5>    H         -0.4315524722          0.2708707845          0.0000001430
|  6> *
|  7> %elprop
|  8>  Polar 1
|  9> end
| 10>
| 11>                          ****END OF INPUT****

CARTESIAN COORDINATES (ANGSTROEM)
---------------------------------
  O     -0.000000   -0.006288    0.000000
  H      0.431553    0.270870   -0.000000
  H     -0.431552    0.270871    0.000000

 Total Charge           Charge          ....    0
 Multiplicity           Mult            ....    1
 Number of Electrons    NEL             ....   10
 Basis Dimension        Dim             ....   24

ORBITAL ENERGIES
----------------

  NO   OCC          E(Eh)            E(eV)
   0   2.0000     -19.091504      -519.5062
   1   2.0000      -1.251817       -34.0637
   2   2.0000      -0.788826       -21.4650
   3   2.0000      -0.402201       -10.9444
   4   2.0000      -0.346698        -9.4341
   5   0.0000       0.107887         2.9358
   6   0.0000       0.177362         4.8263
   7   0.0000       0.780316        21.2335
   8   0.0000       0.812438        22.1076
   9   0.0000       0.919566        25.0227

MULLIKEN ATOMIC CHARGES
-----------------------
   0 O :    0.457512
   1 H :   -0.228756
   2 H :   -0.228756
Sum of atomic charges:    0.0000000

LOEWDIN ATOMIC CHARGES
----------------------
   0 O :    0.566575
   1 H :   -0.283287
   2 H :   -0.283288

  Mayer bond orders larger than 0.100000
B(  0-O ,  1-H ) :   0.9520 B(  0-O ,  2-H ) :   0.9520 B(  1-H ,  2-H ) :   0.1588

FINAL SINGLE POINT ENERGY       -74.898117675950

DIPOLE MOMENT
-------------

Method             : SCF
Type of density    : Electron Density
Multiplicity       :   1
Irrep              :   0
Energy             :   -74.8981176759500329 Eh
Relativity type    :
Basis              : AO
                                X                 Y                 Z
Electronic contribution:      0.000000011       0.152625047       0.000000017
Nuclear contribution   :      0.000000606       0.461391199       0.000000042
                        -----------------------------------------
Total Dipole Moment    :      0.000000617       0.614016246       0.000000059
                        -----------------------------------------
Magnitude (a.u.)       :      0.614016246
Magnitude (Debye)      :      1.560705266

VIBRATIONAL FREQUENCIES
-----------------------

Scaling factor for frequencies =  1.000000000  (already applied!)

     0:       0.00 cm**-1
     1:       0.00 cm**-1
     2:       0.00 cm**-1
     3:       0.00 cm**-1
     4:       0.00 cm**-1
     5:       0.00 cm**-1
     6:   -8926.17 cm**-1  ***imaginary mode***
     7:   17758.22 cm**-1
     8:   18364.44 cm**-1

IR SPECTRUM
-----------

 Mode   freq       eps      Int      T**2         TX        TY        TZ
       cm**-1   L/(mol*cm) km/mol    a.u.
----------------------------------------------------------------------------
  7:  17758.22   0.000240    1.21  0.000004  (-0.000000 -0.002055 -0.000000)
  8:  18364.44   0.013348   67.45  0.000227  (-0.015060  0.000000  0.000000)

--------------------------
THERMOCHEMISTRY AT 298.15K
--------------------------

Temperature         ...   298.15 K
Pressure            ...     1.00 atm
Total Mass          ...    18.02 AMU
Quasi RRHO          ...     True
Cut-Off Frequency   ...     1.00 cm^-1

Throughout the following assumptions are being made:
  (1) The electronic state is orbitally nondegenerate
  (2) There are no thermally accessible electronically excited states
  (3) Hindered rotations indicated by low frequency modes are not
      treated as such but are treated as vibrations and this may
      cause some error
  (4) All equations used are the standard statistical mechanics
      equations for an ideal gas
  (5) All vibrations are strictly harmonic

freq.   17758.22  E(vib)   ...       0.00
freq.   18364.44  E(vib)   ...       0.00

------------
INNER ENERGY
------------

The inner energy is: U= E(el) + E(ZPE) + E(vib) + E(rot) + E(trans)
    E(el)   - is the total energy from the electronic structure calculation
              = E(kin-el) + E(nuc-el) + E(el-el) + E(nuc-nuc)
    E(ZPE)  - the the zero temperature vibrational energy from the frequency calculation
    E(vib)  - the the finite temperature correction to E(ZPE) due to population
              of excited vibrational states
    E(rot)  - is the rotational thermal energy
    E(trans)- is the translational thermal energy

Summary of contributions to the inner energy U:
Electronic energy                ...    -74.89811768 Eh
Zero point energy                ...      0.08229348 Eh      51.64 kcal/mol
Thermal vibrational correction   ...      0.00000000 Eh       0.00 kcal/mol
Thermal rotational correction    ...      0.00141627 Eh       0.89 kcal/mol
Thermal translational correction ...      0.00141627 Eh       0.89 kcal/mol
-----------------------------------------------------------------------
Total thermal energy                    -74.81299166 Eh

Summary of corrections to the electronic energy:
(perhaps to be used in another calculation)
Total thermal correction                  0.00283254 Eh       1.78 kcal/mol
Non-thermal (ZPE) correction              0.08229348 Eh      51.64 kcal/mol
-----------------------------------------------------------------------
Total correction                          0.08512602 Eh      53.42 kcal/mol

--------
ENTHALPY
--------

The enthalpy is H = U + kB*T
                kB is Boltzmann's constant
Total thermal energy              ...    -74.81299166 Eh
Thermal Enthalpy correction       ...      0.00094421 Eh       0.59 kcal/mol
-----------------------------------------------------------------------
Total Enthalpy                    ...    -74.81204745 Eh

Note: Rotational entropy computed according to Herzberg
Infrared and Raman Spectra, Chapter V,1, Van Nostrand Reinhold, 1945
Point Group:  C2v, Symmetry Number:   2
Rotational constants in cm-1:   122.572275    44.899185    32.861690

Vibrational entropy computed according to the QRRHO of S. Grimme
Chem.Eur.J. 2012 18 9955 using a reference frequency of 100.0 cm-1

-------
ENTROPY
-------

The entropy contributions are T*S = T*(S(el)+S(vib)+S(rot)+S(trans))
     S(el)   - electronic entropy
     S(vib)  - vibrational entropy
     S(rot)  - rotational entropy
     S(trans)- translational entropy
The entropies will be listed as multiplied by the temperature to get
units of energy

Electronic entropy                ...      0.00000000 Eh      0.00 kcal/mol
Vibrational entropy               ...     -0.00000000 Eh     -0.00 kcal/mol
Rotational entropy                ...      0.00314150 Eh      1.97 kcal/mol
Translational entropy             ...      0.01644380 Eh     10.32 kcal/mol
-----------------------------------------------------------------------
Final entropy term                ...      0.01958530 Eh     12.29 kcal/mol

In case the symmetry of your molecule has not been determined correctly
or in case you have a reason to use a different symmetry number we print
out the resulting rotational entropy values for sn=1,12:

 non-linear molecules -----------------------------------
|  sn= 1 | S(rot)=       0.00379595 Eh      2.38 kcal/mol|
|  sn= 2 | S(rot)=       0.00314150 Eh      1.97 kcal/mol|
|  sn= 3 | S(rot)=       0.00275866 Eh      1.73 kcal/mol|
|  sn= 4 | S(rot)=       0.00248704 Eh      1.56 kcal/mol|
|  sn= 5 | S(rot)=       0.00227635 Eh      1.43 kcal/mol|
|  sn= 6 | S(rot)=       0.00210421 Eh      1.32 kcal/mol|
|  sn= 7 | S(rot)=       0.00195866 Eh      1.23 kcal/mol|
|  sn= 8 | S(rot)=       0.00183258 Eh      1.15 kcal/mol|
|  sn= 9 | S(rot)=       0.00172138 Eh      1.08 kcal/mol|
|  sn=10 | S(rot)=       0.00162190 Eh      1.02 kcal/mol|
|  sn=11 | S(rot)=       0.00153191 Eh      0.96 kcal/mol|
|  sn=12 | S(rot)=       0.00144975 Eh      0.91 kcal/mol|
 linear molecules ---------------------------------------
|  Dinfh | S(rot)=       0.00202844 Eh      1.27 kcal/mol|
|  Cinfv | S(rot)=       0.00268289 Eh      1.68 kcal/mol|
 --------------------------------------------------------

-------------------
GIBBS FREE ENERGY
-------------------

The Gibbs free energy is G = H - T*S

Total enthalpy                    ...    -74.81204745 Eh
Total entropy correction          ...     -0.01958530 Eh    -12.29 kcal/mol
-----------------------------------------------------------------------
Final Gibbs free energy         ...    -74.83163274 Eh

For completeness - the Gibbs free energy minus the electronic energy
G-E(el)                           ...      0.06648493 Eh     41.72 kcal/mol

                             ****ORCA TERMINATED NORMALLY****
TOTAL RUN TIME: 0 days 0 hours 0 minutes 4 seconds 294 msec
