                         Program Version 6.0.1  -  RELEASE   -
|  1> ! B3LYP def2-SVP TightSCF Freq Engrad
|  2> * xyz 0 1
|  3>    N          0.0000086769         -0.0000024632          0.0821101317
|  4>    H          0.4689104292          0.0000022878         -0.1239170341
|  5>    H         -0.2348398766          0.4067451785         -0.1242541658
|  6>    H         -0.2347972870         -0.4066200202         -0.1241889508
|  7> *
|  8> %elprop
|  9>  Polar 1
| 10> end
| 11>
| 12>                          ****END OF INPUT****

CARTESIAN COORDINATES (ANGSTROEM)
---------------------------------
  N      0.000009   -0.000002    0.082110
  H      0.468910    0.000002   -0.123917
  H     -0.234840    0.406745   -0.124254
  H     -0.234797   -0.406620   -0.124189

 Total Charge           Charge          ....    0
 Multiplicity           Mult            ....    1
 Number of Electrons    NEL             ....   10
 Basis Dimension        Dim             ....   29

ORBITAL ENERGIES
----------------

  NO   OCC          E(Eh)            E(eV)
   0   2.0000     -14.268905      -388.2767
   1   2.0000      -1.124933       -30.6110
   2   2.0000      -0.646170       -17.5832
   3   2.0000      -0.645993       -17.5784
   4   2.0000      -0.289421        -7.8756
   5   0.0000       0.094163         2.5623
   6   0.0000       0.180151         4.9022
   7   0.0000       0.180166         4.9026
   8   0.0000       0.634378        17.2623
   9   0.0000       0.725819        19.7505

MULLIKEN ATOMIC CHARGES
-----------------------
   0 N :    1.067031
   1 H :   -0.356470
   2 H :   -0.355147
   3 H :   -0.355414
Sum of atomic charges:    0.0000000

LOEWDIN ATOMIC CHARGES
----------------------
   0 N :    0.467505
   1 H :   -0.156649
   2 H :   -0.155306
   3 H :   -0.155550

  Mayer bond orders larger than 0.100000
B(  1-H ,  2-H ) :   0.3070 B(  1-H ,  3-H ) :   0.3071 B(  2-H ,  3-H ) :   0.3067

FINAL SINGLE POINT ENERGY       -54.130459183566

DIPOLE MOMENT
-------------

Method             : SCF
Type of density    : Electron Density
Multiplicity       :   1
Irrep              :   0
Energy             :   -54.1304591835657334 Eh
Relativity type    :
Basis              : AO
                                X                 Y                 Z
Electronic contribution:      0.000423994      -0.000069129      -0.266881057
Nuclear contribution   :     -0.000580585       0.000103995      -0.477176985
                        -----------------------------------------
Total Dipole Moment    :     -0.000156591       0.000034866      -0.744058041
                        -----------------------------------------
Magnitude (a.u.)       :      0.744058058
Magnitude (Debye)      :      1.891245285

VIBRATIONAL FREQUENCIES
-----------------------

Scaling factor for frequencies =  1.000000000  (already applied!)

     0:       0.00 cm**-1
     1:       0.00 cm**-1
     2:       0.00 cm**-1
     3:       0.00 cm**-1
     4:       0.00 cm**-1
     5:       0.00 cm**-1
     6:   -9151.36 cm**-1  ***imaginary mode***
     7:   -8299.37 cm**-1  ***imaginary mode***
     8:   -8280.32 cm**-1  ***imaginary mode***
     9:   16766.75 cm**-1
    10:   17508.18 cm**-1
    11:   17541.26 cm**-1

IR SPECTRUM
-----------

 Mode   freq       eps      Int      T**2         TX        TY        TZ
       cm**-1   L/(mol*cm) km/mol    a.u.
----------------------------------------------------------------------------
  9:  16766.75   0.001004    5.07  0.000019  (-0.000329  0.000057  0.004310)
 10:  17508.18   0.006978   35.27  0.000124  (-0.000882  0.011118 -0.000034)
 11:  17541.26   0.007021   35.48  0.000125  (-0.011140 -0.000882 -0.000151)

--------------------------
THERMOCHEMISTRY AT 298.15K
--------------------------

Temperature         ...   298.15 K
Pressure            ...     1.00 atm
Total Mass          ...    17.03 AMU
Quasi RRHO          ...     True
Cut-Off Frequency   ...     1.00 cm^-1

Throughout the following assumptions are being made:
  (1) The electronic state is orbitally nondegenerate
  (2) There are no thermally accessible electronically excited states
  (3) Hindered rotations indicated by low frequency modes are not
      treated as such but are treated as vibrations and this may
      cause some error
  (4) All equations used are the standard statistical mechanics
      equations for an ideal gas
  (5) All vibrations are strictly harmonic

freq.   16766.75  E(vib)   ...       0.00
freq.   17508.18  E(vib)   ...       0.00
freq.   17541.26  E(vib)   ...       0.00

------------
INNER ENERGY
------------

The inner energy is: U= E(el) + E(ZPE) + E(vib) + E(rot) + E(trans)
    E(el)   - is the total energy from the electronic structure calculation
              = E(kin-el) + E(nuc-el) + E(el-el) + E(nuc-nuc)
    E(ZPE)  - the the zero temperature vibrational energy from the frequency calculation
    E(vib)  - the the finite temperature correction to E(ZPE) due to population
              of excited vibrational states
    E(rot)  - is the rotational thermal energy
    E(trans)- is the translational thermal energy

Summary of contributions to the inner energy U:
Electronic energy                ...    -54.13045918 Eh
Zero point energy                ...      0.11804598 Eh      74.07 kcal/mol
Thermal vibrational correction   ...      0.00000000 Eh       0.00 kcal/mol
Thermal rotational correction    ...      0.00141627 Eh       0.89 kcal/mol
Thermal translational correction ...      0.00141627 Eh       0.89 kcal/mol
-----------------------------------------------------------------------
Total thermal energy                    -54.00958066 Eh

Summary of corrections to the electronic energy:
(perhaps to be used in another calculation)
Total thermal correction                  0.00283254 Eh       1.78 kcal/mol
Non-thermal (ZPE) correction              0.11804598 Eh      74.07 kcal/mol
-----------------------------------------------------------------------
Total correction                          0.12087852 Eh      75.85 kcal/mol

--------
ENTHALPY
--------

The enthalpy is H = U + kB*T
                kB is Boltzmann's constant
Total thermal energy              ...    -54.00958066 Eh
Thermal Enthalpy correction       ...      0.00094421 Eh       0.59 kcal/mol
-----------------------------------------------------------------------
Total Enthalpy                    ...    -54.00863645 Eh

Note: Only C1 symmetry has been detected, increase convergence thresholds
      if your molecule has a higher symmetry. Symmetry factor of 1.0 is
      used for the rotational entropy correction.

Note: Rotational entropy computed according to Herzberg
Infrared and Raman Spectra, Chapter V,1, Van Nostrand Reinhold, 1945
Point Group:  C1, Symmetry Number:   1
Rotational constants in cm-1:    38.437625    38.381933    25.303199

Vibrational entropy computed according to the QRRHO of S. Grimme
Chem.Eur.J. 2012 18 9955 using a reference frequency of 100.0 cm-1

-------
ENTROPY
-------

The entropy contributions are T*S = T*(S(el)+S(vib)+S(rot)+S(trans))
     S(el)   - electronic entropy
     S(vib)  - vibrational entropy
     S(rot)  - rotational entropy
     S(trans)- translational entropy
The entropies will be listed as multiplied by the temperature to get
units of energy

Electronic entropy                ...      0.00000000 Eh      0.00 kcal/mol
Vibrational entropy               ...     -0.00000000 Eh     -0.00 kcal/mol
Rotational entropy                ...      0.00454085 Eh      2.85 kcal/mol
Translational entropy             ...      0.01636425 Eh     10.27 kcal/mol
-----------------------------------------------------------------------
Final entropy term                ...      0.02090510 Eh     13.12 kcal/mol

In case the symmetry of your molecule has not been determined correctly
or in case you have a reason to use a different symmetry number we print
out the resulting rotational entropy values for sn=1,12:

 non-linear molecules -----------------------------------
|  sn= 1 | S(rot)=       0.00454085 Eh      2.85 kcal/mol|
|  sn= 2 | S(rot)=       0.00388640 Eh      2.44 kcal/mol|
|  sn= 3 | S(rot)=       0.00350356 Eh      2.20 kcal/mol|
|  sn= 4 | S(rot)=       0.00323194 Eh      2.03 kcal/mol|
|  sn= 5 | S(rot)=       0.00302125 Eh      1.90 kcal/mol|
|  sn= 6 | S(rot)=       0.00284911 Eh      1.79 kcal/mol|
|  sn= 7 | S(rot)=       0.00270356 Eh      1.70 kcal/mol|
|  sn= 8 | S(rot)=       0.00257748 Eh      1.62 kcal/mol|
|  sn= 9 | S(rot)=       0.00246627 Eh      1.55 kcal/mol|
|  sn=10 | S(rot)=       0.00236680 Eh      1.49 kcal/mol|
|  sn=11 | S(rot)=       0.00227680 Eh      1.43 kcal/mol|
|  sn=12 | S(rot)=       0.00219465 Eh      1.38 kcal/mol|
 linear molecules ---------------------------------------
|  Dinfh | S(rot)=       0.00227522 Eh      1.43 kcal/mol|
|  Cinfv | S(rot)=       0.00292968 Eh      1.84 kcal/mol|
 --------------------------------------------------------

-------------------
GIBBS FREE ENERGY
-------------------

The Gibbs free energy is G = H - T*S

Total enthalpy                    ...    -54.00863645 Eh
Total entropy correction          ...     -0.02090510 Eh    -13.12 kcal/mol
-----------------------------------------------------------------------
Final Gibbs free energy         ...    -54.02954155 Eh

For completeness - the Gibbs free energy minus the electronic energy
G-E(el)                           ...      0.10091763 Eh     63.33 kcal/mol

                             ****ORCA TERMINATED NORMALLY****
TOTAL RUN TIME: 0 days 0 hours 0 minutes 6 seconds 619 msec
